6
ANG Step:        320 Time:     2645.8107339325
C    -2.67205884     0.26604028     0.22268388
N    -1.05140709     0.15331285     0.09274539
H    -2.85551809     0.53897835     1.54975019
H    -3.35172807     0.78900527    -0.78048140
H    -0.66367422    -1.06333571    -0.11401800
H    -0.22702431     1.24665678    -0.63261930
