[Molden Format]
[Atoms] Angs
 O     1  8     0.260338    -0.730781     1.796863
 H     2  1     1.220338    -0.730781     1.796863
 H     3  1    -0.060117     0.174155     1.796863
[GTO]
  1 0
 s    6 1.00
  0.5484671660D+04  0.1831074430D-02
  0.8252349460D+03  0.1395017220D-01
  0.1880469580D+03  0.6844507810D-01
  0.5296450000D+02  0.2327143360D+00
  0.1689757040D+02  0.4701928980D+00
  0.5799635340D+01  0.3585208530D+00
 sp   3 1.00
  0.1553961625D+02 -0.1107775495D+00  0.7087426823D-01
  0.3599933586D+01 -0.1480262627D+00  0.3397528391D+00
  0.1013761750D+01  0.1130767015D+01  0.7271585773D+00
 sp   1 1.00
  0.2700058226D+00  0.1000000000D+01  0.1000000000D+01
 d    1 1.00
  0.8000000000D+00  0.1000000000D+01
  
  2 0
 s    3 1.00
  0.1873113696D+02  0.3349460434D-01
  0.2825394365D+01  0.2347269535D+00
  0.6401216923D+00  0.8137573261D+00
 s    1 1.00
  0.1612777588D+00  0.1000000000D+01
  
  3 0
 s    3 1.00
  0.1873113696D+02  0.3349460434D-01
  0.2825394365D+01  0.2347269535D+00
  0.6401216923D+00  0.8137573261D+00
 s    1 1.00
  0.1612777588D+00  0.1000000000D+01
 

[MO]
 Ene=   -18.9713
 Spin= Alpha
 Occup=   2.000000
   1   0.992510
   2   0.027240
   3   0.000620
   4   0.000870
   5   0.000000
   6   0.011150
   7   0.000010
   8   0.000020
   9   0.000000
  10  -0.008390
  11  -0.008390
  12  -0.008380
  13   0.000010
  14   0.000000
  15   0.000000
  16   0.000420
  17  -0.001140
  18   0.000420
  19  -0.001140
 Ene=    -1.1249
 Spin= Alpha
 Occup=   2.000000
   1  -0.208880
   2   0.458330
   3   0.070740
   4   0.100090
   5   0.000000
   6   0.441150
   7   0.032380
   8   0.045820
   9   0.000000
  10   0.018920
  11   0.016120
  12  -0.011460
  13  -0.004570
  14   0.000000
  15   0.000000
  16   0.140310
  17   0.012820
  18   0.140310
  19   0.012820
 Ene=    -0.6543
 Spin= Alpha
 Occup=   2.000000
   1   0.000000
   2   0.000000
   3   0.423500
   4  -0.299300
   5   0.000000
   6   0.000000
   7   0.218470
   8  -0.154400
   9   0.000000
  10   0.033470
  11  -0.033470
  12   0.000000
  13   0.013690
  14   0.000000
  15   0.000000
  16   0.240660
  17   0.125530
  18  -0.240660
  19  -0.125530
 Ene=    -0.4831
 Spin= Alpha
 Occup=   2.000000
   1   0.083440
   2  -0.169310
   3   0.325410
   4   0.460450
   5   0.000000
   6  -0.377820
   7   0.226140
   8   0.319980
   9   0.000000
  10   0.014680
  11   0.032890
  12  -0.002290
  13   0.029700
  14   0.000000
  15   0.000000
  16   0.135270
  17   0.096370
  18   0.135270
  19   0.096370
 Ene=    -0.4128
 Spin= Alpha
 Occup=   2.000000
   1   0.000000
   2   0.000000
   3   0.000000
   4   0.000000
   5   0.643030
   6   0.000000
   7   0.000000
   8   0.000000
   9   0.507710
  10   0.000000
  11   0.000000
  12   0.000000
  13   0.000000
  14   0.020550
  15   0.029080
  16   0.000000
  17   0.000000
  18   0.000000
  19   0.000000
 Ene=     0.1761
 Spin= Alpha
 Occup=   0.000000
   1  -0.108060
   2   0.113110
   3   0.145950
   4   0.206520
   5   0.000000
   6   1.346130
   7   0.264830
   8   0.374720
   9   0.000000
  10  -0.048080
  11  -0.042930
  12  -0.065960
  13   0.008400
  14   0.000000
  15   0.000000
  16  -0.094740
  17  -0.998300
  18  -0.094740
  19  -0.998300
 Ene=     0.2633
 Spin= Alpha
 Occup=   0.000000
   1   0.000000
   2   0.000000
   3   0.321090
   4  -0.226920
   5   0.000000
   6   0.000000
   7   0.644370
   8  -0.455400
   9   0.000000
  10   0.015070
  11  -0.015070
  12   0.000000
  13   0.006160
  14   0.000000
  15   0.000000
  16  -0.090330
  17  -1.304220
  18   0.090330
  19   1.304220
 Ene=     0.9228
 Spin= Alpha
 Occup=   0.000000
   1   0.000000
   2   0.000000
   3  -0.179420
   4   0.126800
   5   0.000000
   6   0.000000
   7  -0.364240
   8   0.257420
   9   0.000000
  10   0.169920
  11  -0.169920
  12   0.000000
  13   0.069480
  14   0.000000
  15   0.000000
  16   0.846460
  17  -0.607370
  18  -0.846460
  19   0.607370
 Ene=     0.9718
 Spin= Alpha
 Occup=   0.000000
   1   0.044780
   2  -0.289290
   3  -0.277890
   4  -0.393210
   5   0.000000
   6   0.319780
   7   0.044230
   8   0.062580
   9   0.000000
  10   0.077050
  11   0.002750
  12  -0.180940
  13  -0.121140
  14   0.000000
  15   0.000000
  16   0.827050
  17  -0.585830
  18   0.827050
  19  -0.585830
 Ene=     1.0209
 Spin= Alpha
 Occup=   0.000000
   1   0.002890
   2  -0.674640
   3   0.443520
   4   0.627560
   5   0.000000
   6   1.122500
   7  -0.550120
   8  -0.778400
   9   0.000000
  10  -0.192550
  11  -0.221930
  12  -0.252020
  13  -0.047910
  14   0.000000
  15   0.000000
  16   0.254030
  17  -0.172050
  18   0.254030
  19  -0.172040
 Ene=     1.0225
 Spin= Alpha
 Occup=   0.000000
   1   0.000000
   2   0.000000
   3   0.000000
   4   0.000000
   5  -0.960470
   6   0.000000
   7   0.000000
   8   0.000000
   9   1.037820
  10   0.000000
  11   0.000000
  12   0.000000
  13   0.000000
  14   0.009280
  15   0.013130
  16   0.000000
  17   0.000000
  18   0.000000
  19   0.000000
 Ene=     1.1942
 Spin= Alpha
 Occup=   0.000000
   1   0.000000
   2   0.000000
   3  -0.809730
   4   0.572260
   5   0.000000
   6   0.000000
   7   1.366950
   8  -0.966060
   9   0.000000
  10  -0.022150
  11   0.022150
  12   0.000000
  13  -0.009060
  14   0.000000
  15   0.000000
  16  -0.010980
  17  -0.914130
  18   0.010970
  19   0.914130
 Ene=     1.2926
 Spin= Alpha
 Occup=   0.000000
   1  -0.077340
   2  -1.529700
   3  -0.224780
   4  -0.318060
   5   0.000000
   6   3.705020
   7   0.575550
   8   0.814380
   9   0.000000
  10  -0.569640
  11  -0.480450
  12  -0.312470
  13   0.145420
  14   0.000000
  15   0.000000
  16  -0.261400
  17  -0.825550
  18  -0.261400
  19  -0.825550
 Ene=     1.8546
 Spin= Alpha
 Occup=   0.000000
   1   0.000000
   2   0.000000
   3   0.000000
   4   0.000000
   5   0.000000
   6   0.000000
   7   0.000000
   8   0.000000
   9   0.000000
  10   0.000000
  11   0.000000
  12   0.000000
  13   0.000000
  14   0.816640
  15  -0.577150
  16   0.000000
  17   0.000000
  18   0.000000
  19   0.000000
 Ene=     1.8600
 Spin= Alpha
 Occup=   0.000000
   1   0.007930
   2   0.092840
   3   0.003480
   4   0.004930
   5   0.000000
   6  -0.264460
   7  -0.082160
   8  -0.116250
   9   0.000000
  10   0.003160
  11   0.511060
  12  -0.445340
  13   0.828070
  14   0.000000
  15   0.000000
  16   0.092060
  17   0.041120
  18   0.092060
  19   0.041130
 Ene=     1.9016
 Spin= Alpha
 Occup=   0.000000
   1   0.000000
   2   0.000000
   3   0.000000
   4   0.000000
   5  -0.007460
   6   0.000000
   7   0.000000
   8   0.000000
   9  -0.034790
  10   0.000000
  11   0.000000
  12   0.000000
  13   0.000000
  14   0.576710
  15   0.816020
  16   0.000000
  17   0.000000
  18   0.000000
  19   0.000000
 Ene=     2.4189
 Spin= Alpha
 Occup=   0.000000
   1  -0.051520
   2  -0.494280
   3  -0.026100
   4  -0.036930
   5   0.000000
   6   1.514370
   7   0.394830
   8   0.558670
   9   0.000000
  10   0.537510
  11   0.240430
  12  -1.092740
  13  -0.484350
  14   0.000000
  15   0.000000
  16  -0.821580
  17  -0.129820
  18  -0.821580
  19  -0.129820
 Ene=     2.7125
 Spin= Alpha
 Occup=   0.000000
   1   0.000000
   2   0.000000
   3  -0.029360
   4   0.020750
   5   0.000000
   6   0.000000
   7   0.770200
   8  -0.544320
   9   0.000000
  10   1.040000
  11  -1.040000
  12   0.000000
  13   0.425260
  14   0.000000
  15   0.000000
  16  -0.957840
  17   0.010870
  18   0.957840
  19  -0.010870
 Ene=     3.6756
 Spin= Alpha
 Occup=   0.000000
   1  -0.470170
   2   0.282810
   3  -0.065170
   4  -0.092220
   5   0.000000
   6   3.715880
   7   0.178920
   8   0.253160
   9   0.000000
  10  -1.544960
  11  -1.552520
  12  -1.576370
  13  -0.012320
  14   0.000000
  15   0.000000
  16   0.132630
  17  -0.568220
  18   0.132630
  19  -0.568220
[SCFCONV]
scf-first    1 THROUGH   12
    -67.138474
    -67.149868
    -67.209487
    -67.209604
    -67.209606
    -67.209606
    -67.209603
    -67.209603
    -67.209603
    -67.209603
    -67.209603
    -67.209603
