ch2nh2                                                                  
SP        ONIOM(B3LYP TD-FC/6-31G(d,p):UFF)                           Mixed               
Number of atoms                            I                6
Info1-9                                    I   N=           9
          22          21           0           0           0         211
           1           8           1
Charge                                     I                0
Multiplicity                               I                1
Number of electrons                        I                8
Number of alpha electrons                  I                4
Number of beta electrons                   I                4
Number of basis functions                  I                0
Number of independent functions            I                0
Number of point charges in /Mol/           I                0
Number of translation vectors              I                0
Atomic numbers                             I   N=           6
           8           1           1           8           1           1
Nuclear charges                            R   N=           6
  2.00000000E+00  1.00000000E+00  1.00000000E+00  2.00000000E+00  1.00000000E+00
  1.00000000E+00
Current cartesian coordinates              R   N=          18
 -6.96751531E-01 -4.14652131E+00  0.00000000E+00  1.11738556E+00 -4.14652131E+00
  0.00000000E+00 -1.30232294E+00 -2.43644042E+00  0.00000000E+00 -4.43541829E+00
  6.45769705E-01  0.00000000E+00 -2.62128120E+00  6.45769705E-01  0.00000000E+00
 -5.04098970E+00  2.35585059E+00  0.00000000E+00
Force Field                                I                1
Int Atom Types                             I   N=           6
    10081003    10011000    10011000    10081003    10011000    10011000
MM charges                                 R   N=           6
 -8.34000000E-01  4.17000000E-01  4.17000000E-01 -8.34000000E-01  4.17000000E-01
  4.17000000E-01
Integer atomic weights                     I   N=           6
          16           1           1          16           1           1
Real atomic weights                        R   N=           6
  1.59949146E+01  1.00782504E+00  1.00782504E+00  1.59949146E+01  1.00782504E+00
  1.00782504E+00
Atom fragment info                         I   N=           6
           0           0           0           0           0           0
Atom residue num                           I   N=           6
           0           0           0           0           0           0
Nuclear spins                              I   N=           6
           0           1           1           0           1           1
Nuclear ZEff                               R   N=           6
 -6.00000000E+00 -1.00000000E+00 -1.00000000E+00 -6.00000000E+00 -1.00000000E+00
 -1.00000000E+00
Nuclear ZNuc                               R   N=           6
  8.00000000E+00  1.00000000E+00  1.00000000E+00  8.00000000E+00  1.00000000E+00
  1.00000000E+00
Nuclear QMom                               R   N=           6
  0.00000000E+00  0.00000000E+00  0.00000000E+00  0.00000000E+00  0.00000000E+00
  0.00000000E+00
Nuclear GFac                               R   N=           6
  0.00000000E+00  2.79284600E+00  2.79284600E+00  0.00000000E+00  2.79284600E+00
  2.79284600E+00
MicOpt                                     I   N=           6
          -1          -1          -1          -1          -1          -1
Number of contracted shells                I                6
Number of primitive shells                 I                6
Pure/Cartesian d shells                    I                0
Pure/Cartesian f shells                    I                0
Highest angular momentum                   I                0
Largest degree of contraction              I                1
Shell types                                I   N=           6
           0           0           0           0           0           0
Number of primitives per shell             I   N=           6
           1           1           1           1           1           1
Shell to atom map                          I   N=           6
           1           2           3           4           5           6
Primitive exponents                        R   N=           6
  1.00000000E+00  1.00000000E+00  1.00000000E+00  1.00000000E+00  1.00000000E+00
  1.00000000E+00
Contraction coefficients                   R   N=           6
  1.00000000E+00  1.00000000E+00  1.00000000E+00  1.00000000E+00  1.00000000E+00
  1.00000000E+00
Coordinates of each shell                  R   N=          18
 -6.96751531E-01 -4.14652131E+00  0.00000000E+00  1.11738556E+00 -4.14652131E+00
  0.00000000E+00 -1.30232294E+00 -2.43644042E+00  0.00000000E+00 -4.43541829E+00
  6.45769705E-01  0.00000000E+00 -2.62128120E+00  6.45769705E-01  0.00000000E+00
 -5.04098970E+00  2.35585059E+00  0.00000000E+00
Constraint Structure                       R   N=          18
 -6.96751531E-01 -4.14652131E+00  0.00000000E+00  1.11738556E+00 -4.14652131E+00
  0.00000000E+00 -1.30232294E+00 -2.43644042E+00  0.00000000E+00 -4.43541829E+00
  6.45769705E-01  0.00000000E+00 -2.62128120E+00  6.45769705E-01  0.00000000E+00
 -5.04098970E+00  2.35585059E+00  0.00000000E+00
Num ILSW                                   I              100
ILSW                                       I   N=         100
           0           0           0           0           0           0
           0           0           0           0           0          -1
           0           0           0           0           0           0
           0           0           0           0           0           0
           1           1           0           0           0           0
           0           0      100000           0          -1           0
           0           0           0           0           0           0
           0           0           0         103           0           0
           0           0           1           0           0           0
           0           0           4          41           0           0
           0           0           0           0           0           0
           0           0           0           3           0           0
           0           0           0           0           0           0
           0           0           0           0           0           0
           0           0           0           0           0           0
           0           0           0           0           0           0
           0           0           0           0
Num RLSW                                   I               41
RLSW                                       R   N=          41
  1.00000000E+00  1.00000000E+00  1.00000000E+00  1.00000000E+00  1.00000000E+00
  0.00000000E+00  0.00000000E+00  1.00000000E+00  0.00000000E+00  0.00000000E+00
  0.00000000E+00  0.00000000E+00  1.00000000E+00  0.00000000E+00  0.00000000E+00
  0.00000000E+00  0.00000000E+00  1.00000000E+00  0.00000000E+00  0.00000000E+00
  0.00000000E+00  0.00000000E+00  1.00000000E+00  0.00000000E+00  0.00000000E+00
  0.00000000E+00  0.00000000E+00  1.00000000E+00  0.00000000E+00  0.00000000E+00
  0.00000000E+00  0.00000000E+00  1.00000000E+00  0.00000000E+00  0.00000000E+00
  0.00000000E+00  0.00000000E+00  0.00000000E+00  1.00000000E+00  1.00000000E+00
  0.00000000E+00
MxBond                                     I                2
NBond                                      I   N=           6
           2           1           1           2           1           1
IBond                                      I   N=          12
           2           3           1           0           1           0
           5           6           4           0           4           0
RBond                                      R   N=          12
  1.00000000E+00  1.00000000E+00  1.00000000E+00  0.00000000E+00  1.00000000E+00
  0.00000000E+00  1.00000000E+00  1.00000000E+00  1.00000000E+00  0.00000000E+00
  1.00000000E+00  0.00000000E+00
Virial Ratio                               R      2.011911132822728E+00
SCF Energy                                 R     -3.178003683418951E-01
CIS Energy                                 R     -7.644981568237384E+01
Total Energy                               R     -7.609900817458541E+01
Post-SCF wavefunction norm                 R      1.000000000000000E+00
RMS Density                                R      9.592482563366507E-09
External E-field                           R   N=          35
  0.00000000E+00  0.00000000E+00  0.00000000E+00  0.00000000E+00  0.00000000E+00
  0.00000000E+00  0.00000000E+00  0.00000000E+00  0.00000000E+00  0.00000000E+00
  0.00000000E+00  0.00000000E+00  0.00000000E+00  0.00000000E+00  0.00000000E+00
  0.00000000E+00  0.00000000E+00  0.00000000E+00  0.00000000E+00  0.00000000E+00
  0.00000000E+00  0.00000000E+00  0.00000000E+00  0.00000000E+00  0.00000000E+00
  0.00000000E+00  0.00000000E+00  0.00000000E+00  0.00000000E+00  0.00000000E+00
  0.00000000E+00  0.00000000E+00  0.00000000E+00  0.00000000E+00  0.00000000E+00
IOpCl                                      I                0
IROHF                                      I                0
Mulliken Charges                           R   N=           6
 -6.03879372E-01  3.05135826E-01  2.98743545E-01 -8.34000000E-01  4.17000000E-01
  4.17000000E-01
MMPar NCPar                                I   N=          16
          -1          13           6           2           4           1
          10           6          18           6           4          95
           6          13           0           0
MMPar IPrt                                 I   N=          18
           1           1           6           6           6           3
           6           3           0           0           0           0
           0           0           0           0           0           0
MMPar ICnvrt                               I   N=           6
           0           0           0           0           0           0
MMPar ICntr                                I   N=           4
           0           0           0           0
MMPar IList                                I   N=          97
           5           0           0           0           7           0
           8           9           0           0           0           0
           0           0           0           0          10          11
          12           0           0           0           0           0
           0           0           0           0           0           0
           0           0           0           0           0           0
           0           0           0           0           0           0
           0           0           0           0           0           0
           0           0           0           0           0           0
           0           0           0           0           0           0
           0           0           0           0           0           0
           0           0           0           0           0           0
           0           0           0           0           0           0
           0           0           0           0           0           0
           0           0           0           0           0           0
           0           0           0           0           0          13
           0
MMPar AtL                                  I   N=           6
           1           1           1           1           1           1
MMPar ChL                                  I   N=           6
           0           0           0           0           0           0
MMPar Q                                    R   N=           6
 -8.34000000E-01  4.17000000E-01  4.17000000E-01 -8.34000000E-01  4.17000000E-01
  4.17000000E-01
MMPar IAType                               I   N=          12
           3           0           0           3           0           0
           8           1           1           8           1           1
MMPar IAtTpT                               I   N=           1
           0
MMPar IUserT                               I   N=           1
           0
MMPar StepD                                I   N=          95
           0           0           0           0           0           0
           0           0           0           0           0           0
           0           0           0           0           0           0
           0           0           0           0           0           0
           0           0           0           0           0           0
           0           0           0           0           0           0
           0           0           0           0           0           0
           0           0           0           0           0           0
           0           0           0           0           0           0
           0           0           0           0           0           0
           0           0           0           0           0           0
           0           0           0           0           0           0
           0           0           0           0           0           0
           0           0           0           0           0           0
           0           0           0           0           0           0
           0           0           0           0           0
MMPar ICorL                                I   N=         130
           2           1           0           0           0           0
           0           0           0           2           1           2
           0           0           0           0           0           0
           0          12           1           3           0           0
           0           0           0           0           0          12
           4           5           0           0           0           0
           0           0           0          12           4           6
           0           0           0           0           0           0
           0          12           2           1           3           0
           0           0           0           0           0          23
           5           4           6           0           0           0
           0           0           0          23           2           1
           2           1           0           0           0           0
           0           3           3           2           2           1
           0           0           0           0           0           3
           3           1           2           1           0           0
           0           0           0           3           5           4
           2           1           0           0           0           0
           0           3           6           5           2           1
           0           0           0           0           0           3
           6           4           2           1           0           0
           0           0           0           3
MMPar RCorL                                R   N=          78
  0.00000000E+00  0.00000000E+00  1.00000000E+00  0.00000000E+00  0.00000000E+00
  1.00000000E+00  1.00000000E+00  1.33200000E-01  0.00000000E+00  0.00000000E+00
  0.00000000E+00  0.00000000E+00  1.00000000E+00  1.33200000E-01  0.00000000E+00
  0.00000000E+00  0.00000000E+00  0.00000000E+00  1.00000000E+00  1.33200000E-01
  0.00000000E+00  0.00000000E+00  0.00000000E+00  0.00000000E+00  1.00000000E+00
  1.33200000E-01  0.00000000E+00  0.00000000E+00  0.00000000E+00  0.00000000E+00
  1.82404360E+00  1.00000000E+00  1.00000000E+00  1.33200000E-01  0.00000000E+00
  0.00000000E+00  1.82404360E+00  1.00000000E+00  1.00000000E+00  1.33200000E-01
  0.00000000E+00  0.00000000E+00 -1.00000000E+00 -1.00000000E+00  0.00000000E+00
  0.00000000E+00  0.00000000E+00  0.00000000E+00 -1.00000000E+00 -1.00000000E+00
  0.00000000E+00  0.00000000E+00  0.00000000E+00  0.00000000E+00 -1.00000000E+00
 -1.00000000E+00  0.00000000E+00  0.00000000E+00  0.00000000E+00  0.00000000E+00
 -1.00000000E+00 -1.00000000E+00  0.00000000E+00  0.00000000E+00  0.00000000E+00
  0.00000000E+00 -1.00000000E+00 -1.00000000E+00  0.00000000E+00  0.00000000E+00
  0.00000000E+00  0.00000000E+00 -1.00000000E+00 -1.00000000E+00  0.00000000E+00
  0.00000000E+00  0.00000000E+00  0.00000000E+00
MMPar Table                                R   N=          78
  0.00000000E+00  0.00000000E+00  0.00000000E+00  0.00000000E+00  0.00000000E+00
  0.00000000E+00  0.00000000E+00  0.00000000E+00  0.00000000E+00  0.00000000E+00
  0.00000000E+00  0.00000000E+00  0.00000000E+00  0.00000000E+00  0.00000000E+00
  0.00000000E+00  0.00000000E+00  0.00000000E+00  0.00000000E+00  0.00000000E+00
  0.00000000E+00  0.00000000E+00  0.00000000E+00  0.00000000E+00  0.00000000E+00
  0.00000000E+00  0.00000000E+00  0.00000000E+00  0.00000000E+00  0.00000000E+00
  6.61404147E+00  5.45374962E+00  5.45374962E+00  6.61404147E+00  5.45374962E+00
  5.45374962E+00  9.56160871E-05  7.01184638E-05  7.01184638E-05  9.56160871E-05
  7.01184638E-05  7.01184638E-05  1.24343980E+00  6.68963051E-01  6.68963051E-01
  1.24343980E+00  6.68963051E-01  6.68963051E-01  2.30000000E+00  7.12000000E-01
  7.12000000E-01  2.30000000E+00  7.12000000E-01  7.12000000E-01  8.74100000E+00
  4.52800000E+00  4.52800000E+00  8.74100000E+00  4.52800000E+00  4.52800000E+00
  3.18720290E-03  0.00000000E+00  0.00000000E+00  3.18720290E-03  0.00000000E+00
  0.00000000E+00  2.86848261E-05  0.00000000E+00  0.00000000E+00  2.86848261E-05
  0.00000000E+00  0.00000000E+00  3.18720290E-03  3.18720290E-03  3.18720290E-03
  3.18720290E-03  3.18720290E-03  3.18720290E-03
ONIOM Charges                              I   N=          16
           0           0           0           0           0           0
           0           0           0           0           0           0
           0           0           0           0
ONIOM Multiplicities                       I   N=          16
           1           1           0           0           1           1
           0           0           0           0           0           0
           0           0           0           0
Atom Layers                                I   N=           6
           1           1           1           2           2           2
Atom Modifiers                             I   N=           6
           0           0           0           0           0           0
Force Field                                I                0
Int Atom Modified Types                    I   N=           6
           0           0           0           0           0           0
Link Atoms                                 I   N=           6
           0           0           0           0           0           0
Atom Modified MM Charges                   R   N=           6
  0.00000000E+00  0.00000000E+00  0.00000000E+00  0.00000000E+00  0.00000000E+00
  0.00000000E+00
Link Distances                             R   N=          24
  0.00000000E+00  0.00000000E+00  0.00000000E+00  0.00000000E+00  0.00000000E+00
  0.00000000E+00  0.00000000E+00  0.00000000E+00  0.00000000E+00  0.00000000E+00
  0.00000000E+00  0.00000000E+00  0.00000000E+00  0.00000000E+00  0.00000000E+00
  0.00000000E+00  0.00000000E+00  0.00000000E+00  0.00000000E+00  0.00000000E+00
  0.00000000E+00  0.00000000E+00  0.00000000E+00  0.00000000E+00
Cartesian Gradient                         R   N=          18
  0.00000000E+00  0.00000000E+00  0.00000000E+00  0.00000000E+00  0.00000000E+00
  0.00000000E+00  0.00000000E+00  0.00000000E+00  0.00000000E+00  0.00000000E+00
  0.00000000E+00  0.00000000E+00  0.00000000E+00  0.00000000E+00  0.00000000E+00
  0.00000000E+00  0.00000000E+00  0.00000000E+00
ETran NETS                                 I               20
ETran NETV                                 I               48
ETran scalars                              I   N=          20
           3          16           1          10           1           0
           0           0           0           0           0           0
           0           0           0           0           0           0
           0           0
ETran spin                                 I   N=           3
           0           0           0
ETran sym                                  I   N=           3
           0           0           0
ETran state values                         R   N=          48
 -7.64498157E+01  4.82617470E-16 -2.88461445E-16  2.66000270E-01  1.63607745E-17
 -1.67182819E-16 -1.67421594E-01  4.79461242E-01  1.99872291E-02  4.96298554E-16
 -3.35006443E-15 -2.49169544E-15  2.47957552E-16 -5.25184242E-16  3.31535230E-02
  5.64369193E-01 -7.63738097E+01 -3.00131979E-15 -2.92598707E-15 -1.12782368E-02
  1.36027950E-15  1.32108724E-15  7.20257469E-03 -2.01279722E-01 -2.48975586E-01
  4.74856565E-15 -2.75730565E-15 -1.22891201E-14 -1.57367387E-15 -5.48143286E-15
  2.03271480E-01 -1.70398633E-01 -7.63674414E+01  3.20469335E-01  4.85552468E-01
  2.06229972E-16 -1.62406750E-01 -2.40024381E-01 -1.18744605E-15  3.78087885E-15
 -2.96665593E-15 -4.90905274E-01  5.11968666E-03  1.67765112E+00 -4.87880951E-03
  7.38870298E-01  4.62635393E-15  5.77524572E-15
