ch2nh2                                                                  
Force     RTD-FC                                                      STO-3G              
Number of atoms                            I                6
Info1-9                                    I   N=           9
          22          21           0           0           0         100
           5         201           1
Charge                                     I                1
Multiplicity                               I                1
Number of electrons                        I               16
Number of alpha electrons                  I                8
Number of beta electrons                   I                8
Number of basis functions                  I               14
Number of independent functions            I               14
Number of point charges in /Mol/           I                0
Number of translation vectors              I                0
Atomic numbers                             I   N=           6
           7           6           1           1           1           1
Nuclear charges                            R   N=           6
  7.00000000E+00  6.00000000E+00  1.00000000E+00  1.00000000E+00  1.00000000E+00
  1.00000000E+00
Current cartesian coordinates              R   N=          18
 -7.40741732E+00  3.29289658E+00 -3.61778525E-01 -5.30800623E+00  2.05468569E+00
 -5.49209197E-01 -9.04243836E+00  2.45226493E+00 -7.98939208E-01 -7.39531752E+00
  5.09071086E+00  2.20271561E-01 -5.32095280E+00  1.31025144E-01 -1.17200503E+00
 -3.55853372E+00  2.95416153E+00 -8.14471585E-02
Force Field                                I                1
Int Atom Types                             I   N=           6
    10071002    10061002    10011000    10011000    10011000    10011000
MM charges                                 R   N=           6
  0.00000000E+00  0.00000000E+00  0.00000000E+00  0.00000000E+00  0.00000000E+00
  0.00000000E+00
Integer atomic weights                     I   N=           6
          14          12           1           1           1           1
Real atomic weights                        R   N=           6
  1.40030740E+01  1.20000000E+01  1.00782504E+00  1.00782504E+00  1.00782504E+00
  1.00782504E+00
Atom fragment info                         I   N=           6
           0           0           0           0           0           0
Atom residue num                           I   N=           6
           0           0           0           0           0           0
Nuclear spins                              I   N=           6
           2           0           1           1           1           1
Nuclear ZEff                               R   N=           6
 -4.55000000E+00 -3.60000000E+00 -1.00000000E+00 -1.00000000E+00 -1.00000000E+00
 -1.00000000E+00
Nuclear ZNuc                               R   N=           6
  7.00000000E+00  6.00000000E+00  1.00000000E+00  1.00000000E+00  1.00000000E+00
  1.00000000E+00
Nuclear QMom                               R   N=           6
  2.04400000E+00  0.00000000E+00  0.00000000E+00  0.00000000E+00  0.00000000E+00
  0.00000000E+00
Nuclear GFac                               R   N=           6
  4.03761000E-01  0.00000000E+00  2.79284600E+00  2.79284600E+00  2.79284600E+00
  2.79284600E+00
MicOpt                                     I   N=           6
          -1          -1          -1          -1          -1          -1
Number of contracted shells                I                8
Number of primitive shells                 I               24
Pure/Cartesian d shells                    I                0
Pure/Cartesian f shells                    I                0
Highest angular momentum                   I                1
Largest degree of contraction              I                3
Shell types                                I   N=           8
           0          -1           0          -1           0           0
           0           0
Number of primitives per shell             I   N=           8
           3           3           3           3           3           3
           3           3
Shell to atom map                          I   N=           8
           1           1           2           2           3           4
           5           6
Primitive exponents                        R   N=          24
  9.91061690E+01  1.80523124E+01  4.88566024E+00  3.78045588E+00  8.78496645E-01
  2.85714374E-01  7.16168373E+01  1.30450963E+01  3.53051216E+00  2.94124936E+00
  6.83483096E-01  2.22289916E-01  3.42525091E+00  6.23913730E-01  1.68855404E-01
  3.42525091E+00  6.23913730E-01  1.68855404E-01  3.42525091E+00  6.23913730E-01
  1.68855404E-01  3.42525091E+00  6.23913730E-01  1.68855404E-01
Contraction coefficients                   R   N=          24
  1.54328967E-01  5.35328142E-01  4.44634542E-01 -9.99672292E-02  3.99512826E-01
  7.00115469E-01  1.54328967E-01  5.35328142E-01  4.44634542E-01 -9.99672292E-02
  3.99512826E-01  7.00115469E-01  1.54328967E-01  5.35328142E-01  4.44634542E-01
  1.54328967E-01  5.35328142E-01  4.44634542E-01  1.54328967E-01  5.35328142E-01
  4.44634542E-01  1.54328967E-01  5.35328142E-01  4.44634542E-01
P(S=P) Contraction coefficients            R   N=          24
  0.00000000E+00  0.00000000E+00  0.00000000E+00  1.55916275E-01  6.07683719E-01
  3.91957393E-01  0.00000000E+00  0.00000000E+00  0.00000000E+00  1.55916275E-01
  6.07683719E-01  3.91957393E-01  0.00000000E+00  0.00000000E+00  0.00000000E+00
  0.00000000E+00  0.00000000E+00  0.00000000E+00  0.00000000E+00  0.00000000E+00
  0.00000000E+00  0.00000000E+00  0.00000000E+00  0.00000000E+00
Coordinates of each shell                  R   N=          24
 -7.40741732E+00  3.29289658E+00 -3.61778525E-01 -7.40741732E+00  3.29289658E+00
 -3.61778525E-01 -5.30800623E+00  2.05468569E+00 -5.49209197E-01 -5.30800623E+00
  2.05468569E+00 -5.49209197E-01 -9.04243836E+00  2.45226493E+00 -7.98939208E-01
 -7.39531752E+00  5.09071086E+00  2.20271561E-01 -5.32095280E+00  1.31025144E-01
 -1.17200503E+00 -3.55853372E+00  2.95416153E+00 -8.14471585E-02
Constraint Structure                       R   N=          18
 -7.40741732E+00  3.29289658E+00 -3.61778525E-01 -5.30800623E+00  2.05468569E+00
 -5.49209197E-01 -9.04243836E+00  2.45226493E+00 -7.98939208E-01 -7.39531752E+00
  5.09071086E+00  2.20271561E-01 -5.32095280E+00  1.31025144E-01 -1.17200503E+00
 -3.55853372E+00  2.95416153E+00 -8.14471585E-02
Num ILSW                                   I              100
ILSW                                       I   N=         100
           0           0           0           0           2           0
           0           0           0           0           0          -1
           0           0           0           0           2           0
           0           0           1           0           1           0
           1           1           0           0           0           0
           0           0      100000           0          -1           0
           0           0           0           0           0           0
           0           0           0           1           0           0
           0           0           1           0           0           0
           0           0           4          41           0           0
           0           0           0           0           0           0
           0           0           0           0           0           0
           0           0           0           0           0           0
           0           0           0           0           0           0
           0           0           0           0           0           0
           0           0           0           0           0           0
           0           0           0           0
Num RLSW                                   I               41
RLSW                                       R   N=          41
  1.00000000E+00  1.00000000E+00  1.00000000E+00  1.00000000E+00  1.00000000E+00
  0.00000000E+00  0.00000000E+00  1.00000000E+00  0.00000000E+00  0.00000000E+00
  0.00000000E+00  0.00000000E+00  1.00000000E+00  0.00000000E+00  0.00000000E+00
  0.00000000E+00  0.00000000E+00  1.00000000E+00  0.00000000E+00  0.00000000E+00
  0.00000000E+00  0.00000000E+00  1.00000000E+00  0.00000000E+00  0.00000000E+00
  0.00000000E+00  0.00000000E+00  1.00000000E+00  0.00000000E+00  0.00000000E+00
  0.00000000E+00  0.00000000E+00  1.00000000E+00  0.00000000E+00  0.00000000E+00
  0.00000000E+00  0.00000000E+00  0.00000000E+00  1.00000000E+00  1.00000000E+00
  0.00000000E+00
MxBond                                     I                3
NBond                                      I   N=           6
           3           3           1           1           1           1
IBond                                      I   N=          18
           2           3           4           1           5           6
           1           0           0           1           0           0
           2           0           0           2           0           0
RBond                                      R   N=          18
  2.00000000E+00  1.00000000E+00  1.00000000E+00  2.00000000E+00  1.00000000E+00
  1.00000000E+00  1.00000000E+00  0.00000000E+00  0.00000000E+00  1.00000000E+00
  0.00000000E+00  0.00000000E+00  1.00000000E+00  0.00000000E+00  0.00000000E+00
  1.00000000E+00  0.00000000E+00  0.00000000E+00
Virial Ratio                               R      2.018239887890673E+00
SCF Energy                                 R     -9.322950145979846E+01
CIS Energy                                 R     -9.287533957855489E+01
Total Energy                               R     -9.287533957855489E+01
Post-SCF wavefunction norm                 R      1.000000000000000E+00
RMS Force                                  R      3.716611467315191E-02
RMS Density                                R      4.382323615217341E-09
External E-field                           R   N=          35
  0.00000000E+00  0.00000000E+00  0.00000000E+00  0.00000000E+00  0.00000000E+00
  0.00000000E+00  0.00000000E+00  0.00000000E+00  0.00000000E+00  0.00000000E+00
  0.00000000E+00  0.00000000E+00  0.00000000E+00  0.00000000E+00  0.00000000E+00
  0.00000000E+00  0.00000000E+00  0.00000000E+00  0.00000000E+00  0.00000000E+00
  0.00000000E+00  0.00000000E+00  0.00000000E+00  0.00000000E+00  0.00000000E+00
  0.00000000E+00  0.00000000E+00  0.00000000E+00  0.00000000E+00  0.00000000E+00
  0.00000000E+00  0.00000000E+00  0.00000000E+00  0.00000000E+00  0.00000000E+00
IOpCl                                      I                0
IROHF                                      I                0
Alpha Orbital Energies                     R   N=          14
 -1.57995485E+01 -1.14980352E+01 -1.54508265E+00 -1.17321317E+00 -1.04233425E+00
 -9.58384892E-01 -8.49043993E-01 -7.78494825E-01 -8.92936631E-02  2.82969768E-01
  2.98403063E-01  3.56045145E-01  5.30971562E-01  5.59908155E-01
Alpha MO coefficients                      R   N=         196
  9.93294739E-01  3.31799705E-02  1.48164263E-03 -8.73856503E-04 -1.32280401E-04
  4.80160699E-04 -7.16197912E-03  4.50160661E-03 -2.65500097E-03 -4.01893054E-04
 -6.34529331E-03 -6.34529323E-03  3.57729890E-04  3.57729890E-04  1.83497517E-04
 -6.37691394E-03 -3.04195674E-03  1.79411454E-03  2.71578976E-04  9.92631754E-01
  3.38873242E-02 -1.36326889E-03  8.04042302E-04  1.21708472E-04 -4.04015889E-04
 -4.04015863E-04 -6.54669269E-03 -6.54669271E-03 -2.12521560E-01  6.97057270E-01
  8.24345634E-02 -4.86190256E-02 -7.35964248E-03 -1.21905315E-01  2.83921779E-01
 -1.16741019E-01  6.88526471E-02  1.04223618E-02  9.33766975E-02  9.33766961E-02
  3.96882648E-02  3.96882648E-02  8.76443529E-02 -3.43456312E-01  2.96806432E-01
 -1.75053388E-01 -2.64981084E-02 -1.87452108E-01  5.70774521E-01  5.91882153E-02
 -3.49085828E-02 -5.28421806E-03 -1.60506071E-01 -1.60506068E-01  1.81157749E-01
  1.81157750E-01 -1.06390328E-09  4.66036089E-09  2.86498048E-01  4.58927823E-01
  1.77280260E-01  7.01051647E-10 -2.11863538E-09  1.63111705E-01  2.61280996E-01
  1.00930944E-01 -2.60058899E-01  2.60058900E-01 -1.37478683E-01  1.37478681E-01
 -9.15729684E-03  1.89209428E-02  4.46869856E-01 -2.63559281E-01 -3.98953388E-02
  3.93544124E-02 -1.62139153E-01 -4.30119305E-01  2.53679865E-01  3.84001833E-02
 -1.58812859E-01 -1.58812861E-01 -2.15225817E-01 -2.15225815E-01  3.92175492E-10
 -2.22007658E-09 -1.81757839E-01 -2.91149491E-01 -1.12467994E-01  1.22716827E-10
 -7.56405568E-10  2.71757526E-01  4.35315558E-01  1.68159759E-01  2.36547580E-01
 -2.36547579E-01 -3.49627511E-01  3.49627513E-01 -4.33075855E-08  2.09300448E-07
 -7.65049256E-02 -2.44072777E-01  7.55473472E-01 -9.20694234E-09  4.78450591E-08
 -4.34150667E-02 -1.38506767E-01  4.28713952E-01 -2.67270895E-07  2.45469354E-07
  4.34466459E-07 -3.55719491E-07  5.40345201E-08 -3.17591968E-07  6.17753512E-02
  1.97081185E-01 -6.10020552E-01 -4.51338754E-08  2.22262473E-07 -8.82291228E-02
 -2.81476688E-01  8.71245547E-01 -8.16977484E-09  3.54856433E-07 -2.35585949E-07
  3.75106527E-08 -1.86073703E-01  1.31377256E+00 -2.60667861E-01  1.53739541E-01
  2.32714228E-02  3.51460039E-02 -1.92500972E-01  3.16847851E-01 -1.86873481E-01
 -2.82872682E-02 -8.64135805E-01 -8.64136098E-01 -1.89016214E-02 -1.89018712E-02
  3.83599154E-08 -2.74658626E-07  3.42260513E-01  5.48251010E-01  2.11784824E-01
 -2.30099375E-09  8.51760513E-09  3.42287995E-01  5.48295188E-01  2.11802813E-01
  6.84988515E-01 -6.84988143E-01  6.14966206E-01 -6.14966161E-01  3.37690958E-02
 -2.12021397E-01 -2.12066091E-01  1.25074368E-01  1.89328666E-02 -2.08198145E-01
  1.36743434E+00  3.40866713E-01 -2.01039532E-01 -3.04320693E-02  1.43605085E-02
  1.43604768E-02 -9.18814930E-01 -9.18814956E-01 -7.18859801E-02  5.66963733E-01
  9.39375371E-01 -5.54033929E-01 -8.38651670E-02  9.46425132E-02 -6.63027596E-01
  9.75778221E-01 -5.75503825E-01 -8.71153439E-02  2.66615453E-01  2.66615485E-01
 -1.61367103E-01 -1.61367125E-01  1.14408138E-10  3.18885947E-10 -4.27828665E-01
 -6.85318674E-01 -2.64733315E-01 -2.12517845E-09  1.50730803E-08  4.74465506E-01
  7.60024069E-01  2.93591894E-01 -6.05557738E-01  6.05557711E-01  6.82255530E-01
 -6.82255526E-01
Total SCF Density                          R   N=         105
  2.07913055E+00 -2.90917299E-01  1.21070131E+00  1.17466366E-02 -7.19093736E-02
  8.31127359E-01 -6.92803417E-03  4.24113440E-02  5.86501754E-02  9.14858538E-01
 -1.04873989E-03  6.42006230E-03 -2.57311962E-02 -1.09549747E-01  1.23433110E+00
  1.95541911E-02 -5.23254990E-02 -1.02237465E-01  6.02986034E-02  9.12751150E-03
  2.07373200E+00 -3.18746348E-02 -3.29585624E-03  2.40491434E-01 -1.41839383E-01
 -2.14704502E-02 -2.28702314E-01  8.67767760E-01  7.68148007E-02 -2.19367915E-01
 -3.67187992E-01  2.30002325E-01 -3.59937669E-02 -3.02835188E-02  1.40597093E-01
  6.08997799E-01 -4.53045580E-02  1.29380849E-01  2.30002362E-01 -7.42393121E-02
 -2.33958174E-01  1.78609008E-02 -8.29226953E-02  9.54035776E-02  6.94543969E-01
 -6.85788974E-03  1.95848554E-02 -3.59937467E-02 -2.33957749E-01  6.42787811E-01
  2.70365605E-03 -1.25522237E-02  5.10018759E-02  1.01677407E-01  4.47743423E-01
 -7.75210717E-02  2.34005756E-01 -4.56838685E-01 -2.45600473E-01 -1.25610065E-01
  2.41000259E-02 -7.86391217E-02  1.39488902E-01  1.35712009E-02  1.85101845E-02
  3.66657490E-01 -7.75210719E-02  2.34005759E-01  1.31642123E-02  5.07275165E-01
  1.65220074E-01  2.41000257E-02 -7.86391202E-02  5.20291218E-02 -1.26526517E-01
 -3.56085515E-02 -1.27684064E-01  3.66657490E-01  1.95357167E-02 -7.71468738E-02
 -2.99137637E-02  1.23543588E-01  3.68844579E-02 -1.07529963E-01  2.98681421E-01
 -3.75316790E-02 -4.92629822E-01 -1.62956456E-01 -7.62818876E-02  1.11522061E-01
  4.43796426E-01  1.95357168E-02 -7.71468749E-02 -1.26554309E-01 -3.12603467E-02
 -2.29153301E-02 -1.07529962E-01  2.98681419E-01  4.32221549E-01  2.59845849E-01
  1.27719392E-01  1.11522061E-01 -7.62818874E-02 -1.20762715E-01  4.43796426E-01
Total CI Rho(1) Density                    R   N=         105
  2.07913055E+00 -2.90917299E-01  1.21070131E+00  1.17466392E-02 -7.19093881E-02
  8.14423026E-01 -6.92802590E-03  4.24112981E-02  3.79508769E-02  9.01029909E-01
 -1.04876513E-03  6.42020265E-03 -7.60921235E-02 -2.50047745E-01  1.59840193E+00
  1.95541911E-02 -5.23254990E-02 -1.02237468E-01  6.02985962E-02  9.12753373E-03
  2.07373200E+00 -3.18746348E-02 -3.29585624E-03  2.40491445E-01 -1.41839350E-01
 -2.14705527E-02 -2.28702314E-01  8.67767760E-01  7.68147969E-02 -2.19367894E-01
 -3.30895926E-01  2.79471717E-01  4.37074348E-02 -3.02835157E-02  1.40597079E-01
  5.32469707E-01 -4.53045699E-02  1.29380915E-01  2.79471793E-01 -2.26408910E-02
 -2.07218703E-02  1.78609110E-02 -8.29227423E-02 -1.48143324E-02  5.57451372E-01
 -6.85785366E-03  1.95846548E-02  4.37070159E-02 -2.07224748E-02  1.26832600E-01
  2.70362431E-03 -1.25520773E-02 -7.80639368E-02 -2.27207442E-01  1.17476674E+00
 -7.75210718E-02  2.34005756E-01 -4.27859381E-01 -1.99179919E-01 -1.07677917E-01
  2.41000258E-02 -7.86391216E-02  8.11881812E-02 -7.98180112E-02 -1.75652269E-02
  3.26428403E-01 -7.75210719E-02  2.34005759E-01 -1.58150768E-02  4.60854657E-01
  1.47287788E-01  2.41000257E-02 -7.86391203E-02  1.10329822E-01 -3.31373697E-02
  4.67057409E-04 -8.74549775E-02  3.26428403E-01  1.95357169E-02 -7.71468746E-02
 -8.20681842E-02  3.99999238E-02  4.61177250E-03 -1.07529963E-01  2.98681421E-01
  6.85427362E-02 -3.22714144E-01 -9.73196063E-02 -2.68402252E-03  3.79241963E-02
  3.11251297E-01  1.95357166E-02 -7.71468741E-02 -7.43998962E-02  5.22832922E-02
  9.35743539E-03 -1.07529962E-01  2.98681419E-01  3.26147144E-01  8.99302072E-02
  6.20824275E-02  3.79241950E-02 -2.68402259E-03  1.17824147E-02  3.11251295E-01
Total CI Density                           R   N=         105
  2.07666726E+00 -2.78281645E-01  1.15513010E+00  1.05897192E-02 -6.53744624E-02
  7.65468925E-01 -6.24568564E-03  3.85570611E-02  3.46438480E-02  8.51010067E-01
 -9.45480071E-04  5.83679342E-03 -8.13421983E-02 -2.64067720E-01  1.58568028E+00
  2.05741831E-02 -5.68031160E-02 -1.06602886E-01  6.28732761E-02  9.51726480E-03
  2.07115513E+00 -3.73448822E-02  1.90433056E-02  2.68697109E-01 -1.58474762E-01
 -2.39886795E-02 -2.16797423E-01  8.22074153E-01  7.79363637E-02 -2.18749199E-01
 -3.19449954E-01  2.73717379E-01  4.26736195E-02 -2.33088406E-02  1.05490357E-01
  5.16121968E-01 -4.59660568E-02  1.29016007E-01  2.73717467E-01 -1.74688517E-02
 -2.06987736E-02  1.37473179E-02 -6.22171549E-02 -5.48340033E-02  5.01847296E-01
 -6.95798879E-03  1.95294396E-02  4.26731516E-02 -2.06994199E-02  1.30032246E-01
  2.08094648E-03 -9.41784741E-03 -9.32775204E-02 -2.51230287E-01  1.17167368E+00
 -8.16296728E-02  2.44133965E-01 -4.38620084E-01 -2.03693250E-01 -1.10225768E-01
  2.61089474E-02 -8.89464772E-02  7.81165159E-02 -9.62531159E-02 -2.31859902E-02
  3.63850770E-01 -8.16296728E-02  2.44133967E-01 -1.66655108E-02  4.72216126E-01
  1.50872229E-01  2.61089473E-02 -8.89464756E-02  1.23909351E-01 -2.28996926E-02
  5.14969774E-03 -9.58717902E-02  3.63850770E-01  2.02611890E-02 -7.71299596E-02
 -8.57220883E-02  4.33768823E-02  5.33274090E-03 -1.10392088E-01  2.93728807E-01
  7.94369776E-02 -3.40058740E-01 -1.01819943E-01  6.98152849E-04  4.32684308E-02
  3.74704067E-01  2.02611889E-02 -7.71299595E-02 -7.91688766E-02  5.38740563E-02
  9.38846152E-03 -1.10392088E-01  2.93728805E-01  3.47005861E-01  8.85472435E-02
  6.37479176E-02  4.32684296E-02  6.98152733E-04 -1.13800947E-02  3.74704067E-01
Mulliken Charges                           R   N=           6
 -3.00419327E-01  1.98240149E-01  3.42136232E-01  3.42136232E-01  2.08953357E-01
  2.08953357E-01
ONIOM Charges                              I   N=          16
           1           0           0           0           0           0
           0           0           0           0           0           0
           0           0           0           0
ONIOM Multiplicities                       I   N=          16
           1           0           0           0           0           0
           0           0           0           0           0           0
           0           0           0           0
Atom Layers                                I   N=           6
           1           1           1           1           1           1
Atom Modifiers                             I   N=           6
           0           0           0           0           0           0
Force Field                                I                0
Int Atom Modified Types                    I   N=           6
           0           0           0           0           0           0
Link Atoms                                 I   N=           6
           0           0           0           0           0           0
Atom Modified MM Charges                   R   N=           6
  0.00000000E+00  0.00000000E+00  0.00000000E+00  0.00000000E+00  0.00000000E+00
  0.00000000E+00
Link Distances                             R   N=          24
  0.00000000E+00  0.00000000E+00  0.00000000E+00  0.00000000E+00  0.00000000E+00
  0.00000000E+00  0.00000000E+00  0.00000000E+00  0.00000000E+00  0.00000000E+00
  0.00000000E+00  0.00000000E+00  0.00000000E+00  0.00000000E+00  0.00000000E+00
  0.00000000E+00  0.00000000E+00  0.00000000E+00  0.00000000E+00  0.00000000E+00
  0.00000000E+00  0.00000000E+00  0.00000000E+00  0.00000000E+00
Cartesian Gradient                         R   N=          18
  2.20081992E-02 -1.29801998E-02 -1.96488640E-03  4.59439799E-02 -2.70972646E-02
 -4.10181280E-03  4.59403250E-02  9.97542474E-03  7.87498991E-03  1.21113214E-02
 -4.42136911E-02 -1.30576665E-02 -3.53520620E-02  8.14488508E-02  2.27340660E-02
 -9.06517635E-02 -7.13312004E-03 -1.14846903E-02
Dipole Moment                              R   N=           3
 -6.05865597E+00  2.49741147E+00 -4.82193760E-01
QEq coupling tensors                       R   N=          36
 -7.71375383E-01  5.35331613E-02 -5.85809822E-01 -2.23552202E-01 -7.02999132E-01
  1.35718521E+00 -3.34631809E-01 -1.99306473E-01 -4.63976569E-01 -1.97045206E-01
 -4.85178784E-01  7.98608377E-01 -3.08860216E-01 -2.41619535E-01  8.25083389E-02
 -1.36413914E-01 -8.41908179E-02  2.26351877E-01  1.94185850E-01  1.29377235E-02
 -3.92747930E-01 -3.23096484E-03 -2.11954563E-01  1.98562080E-01  1.85287701E-01
  3.93004260E-02 -3.56150006E-01  8.17708321E-03 -1.85364461E-01  1.70862305E-01
 -3.00776744E-01 -2.06663619E-01  1.03062302E-01 -1.20510179E-01 -6.19129888E-02
  1.97714442E-01
ETran NETS                                 I               20
ETran NETV                                 I               48
ETran scalars                              I   N=          20
           3          16           1          10           1           0
           0           0           0           0           0           0
           0           0           0           0           0           0
           0           0
ETran spin                                 I   N=           3
           0           0           0
ETran sym                                  I   N=           3
           0           0           0
ETran state values                         R   N=          48
 -9.28753396E+01  1.38949261E-06 -6.99537724E-07 -8.61947718E-08 -3.08812520E-07
  9.68950303E-08  3.58385870E-10  1.12683550E+00 -6.64595729E-01 -1.00601124E-01
 -1.35085339E-03 -6.92317582E-03  8.27851154E-03 -3.24778064E-03  6.27036489E-03
  9.37814411E-03 -9.28303385E+01 -1.05269171E+00  6.20866722E-01  9.39818246E-02
  2.53467915E-01 -1.49492771E-01 -2.26289838E-02 -1.28597494E-01 -2.59324227E-01
  2.72710936E-01 -3.25683418E+00 -8.00457525E-01  8.78494352E-02  1.65469466E+00
  2.60157980E-02 -1.41242278E-02 -9.28034945E+01 -1.44705809E-02 -4.61608607E-02
  1.42883131E-01  4.61245690E-03  1.47136308E-02 -4.55435853E-02  7.39311854E-01
  1.07694359E+00  4.22801456E-01 -5.83695251E-02  7.81556813E-02  4.17364740E-02
 -8.08482843E-02  2.86057660E-01 -1.27700869E-01
