ch2nh2 Point 2 -- high level on model system.                           
SP        RB3LYP                                                      6-31G(d,p)          
Number of atoms                            I                6
Info1-9                                    I   N=           9
          22          14           0           0           0         111
           1          18        -502
Charge                                     I                0
Multiplicity                               I                1
Number of electrons                        I               10
Number of alpha electrons                  I                5
Number of beta electrons                   I                5
Number of basis functions                  I               25
Number of independent functions            I               25
Number of point charges in /Mol/           I                0
Number of translation vectors              I                0
Atomic numbers                             I   N=           6
           8           1           1           8           1           1
Nuclear charges                            R   N=           6
  8.00000000E+00  1.00000000E+00  1.00000000E+00 -8.34000000E-01  4.17000000E-01
  4.17000000E-01
Current cartesian coordinates              R   N=          18
 -6.96751531E-01 -4.14652131E+00  0.00000000E+00  1.11738556E+00 -4.14652131E+00
  0.00000000E+00 -1.30232294E+00 -2.43644042E+00  0.00000000E+00 -4.43541829E+00
  6.45769705E-01  0.00000000E+00 -2.62128120E+00  6.45769705E-01  0.00000000E+00
 -5.04098970E+00  2.35585059E+00  0.00000000E+00
Force Field                                I                1
Int Atom Types                             I   N=           6
    10081003    10011000    10011000           6           6           6
MM charges                                 R   N=           6
 -8.34000000E-01  4.17000000E-01  4.17000000E-01 -8.34000000E-01  4.17000000E-01
  4.17000000E-01
Integer atomic weights                     I   N=           6
          16           1           1          16           1           1
Real atomic weights                        R   N=           6
  1.59949146E+01  1.00782504E+00  1.00782504E+00  1.59949146E+01  1.00782504E+00
  1.00782504E+00
Atom fragment info                         I   N=           6
           0           0           0           0           0           0
Atom residue num                           I   N=           6
           0           0           0           0           0           0
Nuclear spins                              I   N=           6
           0           1           1           0           1           1
Nuclear ZEff                               R   N=           6
 -5.60000000E+00 -1.00000000E+00 -1.00000000E+00 -6.00000000E+00 -1.00000000E+00
 -1.00000000E+00
Nuclear ZNuc                               R   N=           6
  8.00000000E+00  1.00000000E+00  1.00000000E+00  8.00000000E+00  1.00000000E+00
  1.00000000E+00
Nuclear QMom                               R   N=           6
  0.00000000E+00  0.00000000E+00  0.00000000E+00  0.00000000E+00  0.00000000E+00
  0.00000000E+00
Nuclear GFac                               R   N=           6
  0.00000000E+00  2.79284600E+00  2.79284600E+00  0.00000000E+00  2.79284600E+00
  2.79284600E+00
MicOpt                                     I   N=           6
          -1          -1          -1          -1          -1          -1
Number of contracted shells                I               10
Number of primitive shells                 I               21
Pure/Cartesian d shells                    I                1
Pure/Cartesian f shells                    I                0
Highest angular momentum                   I                2
Largest degree of contraction              I                6
Shell types                                I   N=          10
           0          -1          -1           2           0           0
           1           0           0           1
Number of primitives per shell             I   N=          10
           6           3           1           1           3           1
           1           3           1           1
Shell to atom map                          I   N=          10
           1           1           1           1           2           2
           2           3           3           3
Primitive exponents                        R   N=          21
  5.48467166E+03  8.25234946E+02  1.88046958E+02  5.29645000E+01  1.68975704E+01
  5.79963534E+00  1.55396162E+01  3.59993359E+00  1.01376175E+00  2.70005823E-01
  8.00000000E-01  1.87311370E+01  2.82539436E+00  6.40121692E-01  1.61277759E-01
  1.10000000E+00  1.87311370E+01  2.82539436E+00  6.40121692E-01  1.61277759E-01
  1.10000000E+00
Contraction coefficients                   R   N=          21
  1.83107443E-03  1.39501722E-02  6.84450781E-02  2.32714336E-01  4.70192898E-01
  3.58520853E-01 -1.10777550E-01 -1.48026263E-01  1.13076702E+00  1.00000000E+00
  1.00000000E+00  3.34946043E-02  2.34726953E-01  8.13757326E-01  1.00000000E+00
  1.00000000E+00  3.34946043E-02  2.34726953E-01  8.13757326E-01  1.00000000E+00
  1.00000000E+00
P(S=P) Contraction coefficients            R   N=          21
  0.00000000E+00  0.00000000E+00  0.00000000E+00  0.00000000E+00  0.00000000E+00
  0.00000000E+00  7.08742682E-02  3.39752839E-01  7.27158577E-01  1.00000000E+00
  0.00000000E+00  0.00000000E+00  0.00000000E+00  0.00000000E+00  0.00000000E+00
  0.00000000E+00  0.00000000E+00  0.00000000E+00  0.00000000E+00  0.00000000E+00
  0.00000000E+00
Coordinates of each shell                  R   N=          30
 -6.96751531E-01 -4.14652131E+00  0.00000000E+00 -6.96751531E-01 -4.14652131E+00
  0.00000000E+00 -6.96751531E-01 -4.14652131E+00  0.00000000E+00 -6.96751531E-01
 -4.14652131E+00  0.00000000E+00  1.11738556E+00 -4.14652131E+00  0.00000000E+00
  1.11738556E+00 -4.14652131E+00  0.00000000E+00  1.11738556E+00 -4.14652131E+00
  0.00000000E+00 -1.30232294E+00 -2.43644042E+00  0.00000000E+00 -1.30232294E+00
 -2.43644042E+00  0.00000000E+00 -1.30232294E+00 -2.43644042E+00  0.00000000E+00
Constraint Structure                       R   N=          18
 -6.96751531E-01 -4.14652131E+00  0.00000000E+00  1.11738556E+00 -4.14652131E+00
  0.00000000E+00 -1.30232294E+00 -2.43644042E+00  0.00000000E+00 -4.43541829E+00
  6.45769705E-01  0.00000000E+00 -2.62128120E+00  6.45769705E-01  0.00000000E+00
 -5.04098970E+00  2.35585059E+00  0.00000000E+00
Num ILSW                                   I              100
ILSW                                       I   N=         100
           0           1           0           0           2           0
           0           0           0           0         402          -1
           0           0           0           0           0           0
           0           0           0           0           0           0
           1           1           0           0           0           0
           0           0      100000           0          -1           0
           0           0           0           0           0           0
           0           0           0           1           0           0
           0           0           1           0           0           0
           0           0           4          41           0           0
           0           0           5           0           0           0
           0           0           0           6           0           0
           0           0           0           0           0           0
           0           0           0           0           0           0
           0           0           0           0           0           0
           0           0           0           0           0           0
           0           0           0           0
Num RLSW                                   I               41
RLSW                                       R   N=          41
  8.00000000E-01  7.20000000E-01  1.00000000E+00  8.10000000E-01  2.00000000E-01
  0.00000000E+00  0.00000000E+00  1.00000000E+00  0.00000000E+00  0.00000000E+00
  0.00000000E+00  0.00000000E+00  1.00000000E+00  0.00000000E+00  0.00000000E+00
  0.00000000E+00  0.00000000E+00  1.00000000E+00  0.00000000E+00  0.00000000E+00
  0.00000000E+00  0.00000000E+00  1.00000000E+00  0.00000000E+00  0.00000000E+00
  0.00000000E+00  0.00000000E+00  1.00000000E+00  0.00000000E+00  0.00000000E+00
  0.00000000E+00  0.00000000E+00  1.00000000E+00  0.00000000E+00  0.00000000E+00
  0.00000000E+00  0.00000000E+00  0.00000000E+00  1.00000000E+00  1.00000000E+00
  0.00000000E+00
MxBond                                     I                2
NBond                                      I   N=           6
           2           1           1           2           1           1
IBond                                      I   N=          12
           2           3           1           0           1           0
           5           6           4           0           4           0
RBond                                      R   N=          12
  1.00000000E+00  1.00000000E+00  1.00000000E+00  0.00000000E+00  1.00000000E+00
  0.00000000E+00  1.00000000E+00  1.00000000E+00  1.00000000E+00  0.00000000E+00
  1.00000000E+00  0.00000000E+00
Virial Ratio                               R      2.011911143454870E+00
SCF Energy                                 R     -7.673978779607955E+01
Total Energy                               R     -7.673978779607955E+01
RMS Density                                R      3.356478527012008E-09
External E-field                           R   N=          35
  0.00000000E+00  0.00000000E+00  0.00000000E+00  0.00000000E+00  0.00000000E+00
  0.00000000E+00  0.00000000E+00  0.00000000E+00  0.00000000E+00  0.00000000E+00
  0.00000000E+00  0.00000000E+00  0.00000000E+00  0.00000000E+00  0.00000000E+00
  0.00000000E+00  0.00000000E+00  0.00000000E+00  0.00000000E+00  0.00000000E+00
  0.00000000E+00  0.00000000E+00  0.00000000E+00  0.00000000E+00  0.00000000E+00
  0.00000000E+00  0.00000000E+00  0.00000000E+00  0.00000000E+00  0.00000000E+00
  0.00000000E+00  0.00000000E+00  0.00000000E+00  0.00000000E+00  0.00000000E+00
IOpCl                                      I                0
IROHF                                      I                0
Alpha Orbital Energies                     R   N=          25
 -1.91338876E+01 -9.94425804E-01 -5.25672224E-01 -3.58810869E-01 -2.89227252E-01
  6.34184793E-02  1.50146064E-01  7.78295815E-01  7.94756978E-01  8.90420138E-01
  8.94497375E-01  1.02134798E+00  1.15782123E+00  1.51939768E+00  1.57986732E+00
  1.66364461E+00  2.23072473E+00  2.24113715E+00  2.47919068E+00  2.63226924E+00
  2.68254098E+00  3.03434517E+00  3.32644677E+00  3.51413596E+00  3.73047402E+00
Alpha MO coefficients                      R   N=         625
  9.92870106E-01  2.62223934E-02  7.18979851E-04  1.00538378E-03  2.40211731E-17
  1.04198290E-02  1.13989919E-04  1.63546027E-04  1.99545422E-17 -7.53181269E-03
 -7.56588620E-03 -7.77081541E-03 -5.16742286E-05 -8.11892860E-17  6.63542386E-17
  1.54368068E-04 -1.19186091E-03  3.22636127E-04 -3.90712067E-05  1.22611534E-16
  1.57184307E-04 -1.19327629E-03 -1.43398180E-04  2.88355319E-04 -7.53929142E-17
 -2.11085567E-01  4.68198856E-01  6.68576151E-02  9.35470907E-02  1.87548554E-16
  4.22805260E-01  2.52822144E-02  3.27828078E-02  8.89883977E-17  1.04992957E-03
  1.81665882E-03 -8.13937412E-03  1.12027862E-03  2.45646175E-16 -2.42944072E-16
  1.51769270E-01  1.72048834E-02 -2.42080848E-02  2.81887152E-03 -1.64396321E-16
  1.52277228E-01  1.84696615E-02  1.11728534E-02 -2.14978238E-02  4.47590979E-16
 -3.31911009E-04 -6.56279037E-04  4.15768348E-01 -2.97441024E-01 -1.63760619E-16
  4.53268352E-03  1.90562325E-01 -1.37688709E-01  2.25050288E-16  2.19148868E-02
 -2.30134090E-02 -5.93797057E-04  8.72066401E-03 -1.47882828E-16  1.50500731E-16
  2.48229572E-01  1.53312180E-01 -1.54150124E-02 -8.22349173E-03  1.38900130E-17
 -2.50792553E-01 -1.55763574E-01  1.66607945E-03  1.63275648E-02 -2.25039850E-17
  8.48573961E-02 -1.68429539E-01  3.25991505E-01  4.54333940E-01  2.85561907E-16
 -4.09544804E-01  2.18075072E-01  3.04353151E-01  7.99890153E-17  1.86912206E-02
  3.11771528E-02  9.37525981E-04  2.25812863E-02 -8.36364948E-17  4.26826870E-17
  1.39309688E-01  1.17074280E-01 -1.27301598E-03  1.49189434E-02  1.24194356E-16
  1.36114941E-01  1.20457991E-01  1.51622456E-02  4.33358695E-03 -5.80808698E-17
 -4.74052859E-17 -1.32520933E-16 -1.06278163E-16 -1.07508744E-16  6.43836784E-01
  7.02645781E-16 -1.49075683E-16  3.11075818E-17  4.94417660E-01 -1.68361604E-16
 -2.32199359E-16 -3.17615098E-17  1.14717937E-16  1.69998884E-02  2.31952190E-02
  2.29369199E-16 -4.45551929E-16 -1.60302956E-17 -3.36333430E-17  2.12341649E-02
 -5.28236986E-16  2.01376533E-16  1.05355641E-16 -6.12953931E-17  2.13162879E-02
 -1.03805900E-01  1.14600985E-01  1.46069673E-01  2.25381080E-01  4.91727040E-16
  1.29852777E+00  2.31018267E-01  3.85298484E-01 -4.47135204E-16 -5.15104867E-02
 -4.22867411E-02 -6.06287868E-02  9.70153743E-03 -6.74859016E-17  1.97448917E-16
 -8.77889973E-02 -9.34815536E-01 -9.90812392E-03  1.86879280E-03 -1.12841633E-16
 -9.80769396E-02 -1.02688950E+00  3.45536416E-03 -8.17668868E-03  4.86502350E-17
  3.18410689E-03 -7.76233785E-03 -3.35200989E-01  2.27669168E-01 -3.35938821E-16
 -3.43270255E-02 -6.47147182E-01  4.40318521E-01  3.61590103E-16 -1.87248569E-02
  1.78255075E-02  2.09459052E-04 -7.48218738E-03  1.34525586E-16 -6.14318853E-17
  9.78810003E-02  1.32501302E+00 -1.52557356E-03  5.02174964E-03 -9.65908658E-17
 -8.98288143E-02 -1.26275617E+00 -6.38277627E-03 -1.20706942E-03 -8.58473228E-17
 -1.30405927E-03  1.82608326E-02 -2.02506731E-01  1.53777483E-01  2.23696234E-15
 -3.55099285E-02 -9.33226328E-02  6.27177678E-02 -2.74123197E-15  2.23380885E-01
 -2.25457440E-01  9.70228414E-03  9.74038390E-02  2.44595536E-16  1.09531198E-16
  7.35616461E-01 -7.60424571E-01  1.06440034E-01  5.57487112E-02 -1.04173705E-16
 -7.87639327E-01  8.14467276E-01 -1.09048626E-02 -1.28457781E-01  1.93540492E-17
  4.31882691E-02 -1.49030312E-01 -3.05241539E-01 -4.26985649E-01  1.10326408E-15
  2.80938828E-01  1.98587943E-01  3.11973134E-01 -5.55844865E-16  2.04776959E-01
  1.11757512E-01 -1.33573674E-01 -1.27968864E-01  5.44804645E-16 -3.57623311E-16
  6.81788526E-01 -6.39483956E-01  1.65503381E-01 -5.13163188E-02  3.10039086E-16
  6.26867994E-01 -6.01562735E-01 -1.04544056E-01  1.35012518E-01 -2.44556429E-16
  1.11763963E-02 -6.85662022E-01  3.74730613E-01  5.51564396E-01 -1.80079145E-13
  1.05672181E+00 -5.27623152E-01 -7.80962816E-01  1.96074418E-13 -1.82031424E-01
 -2.25970944E-01 -2.65405998E-01 -5.76194892E-02  1.30873805E-15  2.01572943E-15
  4.21494870E-01 -2.62730818E-01 -3.15149203E-02 -3.43726008E-02 -1.33494233E-16
  4.06725147E-01 -2.16526414E-01 -2.07418286E-02 -4.75699908E-02 -8.48887917E-16
 -2.35687549E-15  1.25236658E-13 -7.54544733E-14 -1.02516579E-13 -9.59651063E-01
 -1.88917192E-13  1.08714401E-13  1.44300483E-13  1.03807257E+00  3.36464288E-14
  4.00281567E-14  4.91177590E-14  1.15010924E-14  9.52732973E-03  1.24345879E-02
 -7.85456841E-14  3.95547093E-14  7.44623225E-15  6.57388366E-15  7.49289540E-04
 -7.80119250E-14  4.55657868E-14  4.35291968E-15  7.52474885E-15  6.96772833E-04
  2.78436649E-04  1.27352514E-02 -6.94755788E-01  4.80700972E-01  5.72172948E-15
 -2.08444489E-02  1.51295358E+00 -1.05586038E+00 -6.11274934E-15  6.46986889E-02
 -5.39989955E-02  3.09060751E-03  2.25587866E-02 -7.23239319E-16  8.15912834E-16
 -2.00287573E-01 -9.42532997E-01  1.71972936E-01 -3.27708674E-02  2.33340129E-16
  2.01048376E-01  9.39414302E-01  8.63042895E-02 -1.49793732E-01  8.41543534E-16
 -7.39670593E-02 -1.49822783E+00 -1.95856501E-01 -2.69950305E-01  3.28226711E-15
  3.65392864E+00  5.27930082E-01  7.31534766E-01 -3.98376975E-15 -5.20371633E-01
 -4.35462936E-01 -3.34318769E-01  1.41151011E-01  1.41666128E-15 -2.79958603E-16
 -2.50915368E-01 -8.35566788E-01  4.86706039E-02  9.32395046E-02  1.03719470E-15
 -2.53773250E-01 -8.18838839E-01  7.26535106E-02  7.53107910E-02 -1.08687841E-15
 -3.78080086E-16  3.58809827E-15 -3.08372031E-16  1.32199033E-15  3.51468908E-04
 -3.95114736E-15  3.36928048E-15 -2.03406527E-15 -9.88229114E-05  8.86325030E-16
 -9.26426643E-16 -1.14850718E-15 -3.01389130E-15  5.45752108E-01 -3.88973939E-01
 -1.99736788E-15 -1.46805774E-15  7.23176344E-17 -2.80712364E-15  3.50757278E-01
 -2.60667241E-15  6.12601537E-15  9.33345638E-16 -7.12491798E-16 -3.52822348E-01
 -2.66177631E-02 -3.08835454E-01 -3.07684293E-02 -4.51973415E-02  3.10097922E-16
  8.52251538E-01  2.75033137E-01  3.91185779E-01 -1.24008161E-15 -1.16810970E-01
 -4.65793030E-01  3.06219774E-01 -5.69373759E-01 -1.82957797E-15  2.31460817E-15
 -2.26147164E-01 -1.45660112E-01 -1.86433091E-02 -2.97029951E-01 -4.08028914E-16
 -2.25072837E-01 -1.46037635E-01 -2.73576112E-01 -1.16673956E-01  3.42534213E-16
  5.42788652E-17  7.57031009E-16  1.89811046E-15  8.15163088E-16 -1.73367696E-02
 -2.19576106E-15 -4.09311090E-15  6.67129713E-17 -1.99394870E-01  1.42857030E-16
  1.04881946E-15 -5.96346822E-16  3.76090449E-16  4.62489114E-01  6.50580593E-01
  8.76368793E-16  2.62157131E-15 -5.49558194E-16 -1.14552450E-15  2.94060080E-01
  1.72097006E-16 -1.64440389E-15  5.19186571E-16  5.79252836E-16  2.91613002E-01
 -2.28529355E-04 -4.16772584E-03 -1.00385193E-01  6.84482550E-02  4.71452030E-17
  9.09562451E-03  5.44191931E-01 -3.78602526E-01  1.49230639E-15  5.24167586E-02
 -4.85284165E-02 -6.87234897E-03  1.82383380E-02  2.29550466E-15  3.16782510E-15
 -2.81528311E-01 -9.20687816E-02 -9.69379165E-02  7.28937957E-01  3.88847449E-16
  2.74922199E-01  8.99470355E-02 -7.19248044E-01 -1.55034400E-01 -5.22503311E-15
 -4.75371027E-02 -5.60580984E-01 -1.07246474E-01 -1.57545569E-01 -1.85143957E-16
  1.35384604E+00  3.52017719E-01  5.10192810E-01  4.54639366E-16  3.48581427E-01
  1.97453143E-01 -1.05902758E+00 -2.59600757E-01 -3.50629612E-15  2.71802646E-15
 -6.15003268E-01 -8.92766959E-02 -2.23482662E-01 -9.51237516E-02  5.22960829E-16
 -6.23161846E-01 -8.77915649E-02 -5.87515059E-03 -2.45535875E-01 -1.86346509E-15
 -7.91618743E-04 -2.18761849E-03 -2.78435366E-01  1.96218192E-01 -1.01681020E-15
  1.22958412E-02  3.19567169E-01 -2.20904684E-01 -7.32742163E-16  6.71528972E-01
 -6.70003350E-01 -7.40805335E-03  2.70619435E-01 -6.64866602E-15  1.39561212E-15
 -5.05318083E-01  2.01009394E-01 -3.91478232E-01 -1.88074089E-01  7.17080050E-15
  4.95497312E-01 -2.04440808E-01  4.80787911E-02  4.32078427E-01 -2.28199835E-15
  3.85654704E-16 -2.67752717E-15  2.07155675E-15 -3.35267982E-16 -1.86927599E-02
  2.39143911E-15  1.42064077E-15  1.43196965E-17 -4.17934766E-01  2.50685113E-16
  2.30094351E-15 -1.75622182E-16 -7.28905734E-16 -3.94915911E-01 -5.87782747E-01
 -1.51480181E-15 -1.46005479E-15  1.71047519E-15  3.28503345E-15  7.48382664E-01
 -1.10562489E-15 -4.39539931E-16 -3.44678707E-15 -3.11571950E-15  7.74842668E-01
  3.13293863E-16 -4.39534412E-15 -2.06381299E-15  3.37756751E-16  4.15331331E-04
  2.36698105E-15  7.64852680E-15 -4.09752225E-15  7.32506307E-03  8.01141278E-15
 -6.18214064E-15 -9.98883878E-16  2.75542633E-15  7.46394424E-01 -5.11460356E-01
 -7.88087194E-15  6.76568894E-17 -3.65547571E-15 -7.71517528E-16 -7.31788282E-01
  6.34949656E-15  1.74941778E-16 -9.97252836E-16 -2.27178134E-15  7.03694799E-01
  1.17069924E-02 -9.99840994E-02  3.45360044E-02  4.93569295E-02  2.79604476E-16
  2.47604221E-01  2.92388781E-01  4.11300252E-01  1.40438668E-16 -1.20161804E-01
  4.10900391E-01 -5.21509244E-02  8.69482554E-01 -5.94671075E-16  2.23636795E-16
 -1.31324468E-01 -1.12267267E-01  1.12545901E-01 -8.15789855E-01  9.34466127E-18
 -1.28387598E-01 -1.12014743E-01 -8.06826176E-01 -1.65107952E-01 -1.09490664E-15
 -2.61076466E-01  2.58715852E-01  2.30268937E-01  3.36720093E-01 -4.62311314E-16
  2.87634109E+00  4.01203460E-01  5.89656904E-01  1.59699529E-16 -1.47354478E-01
 -3.51454575E-01 -1.20955532E+00 -3.75019309E-01  1.00190917E-15 -1.30923560E-15
 -7.29151141E-01 -5.65067889E-01  8.59241983E-01  2.32950517E-02 -2.29257444E-15
 -7.52894580E-01 -5.73286936E-01 -2.71531586E-01  8.33989988E-01  2.78877462E-15
  5.54519910E-03 -3.26227483E-03 -5.95048723E-01  4.21033522E-01 -6.03627091E-16
 -4.69552107E-02 -1.13464287E+00  7.94926077E-01  4.92213185E-16 -1.17234909E+00
  1.20554183E+00  1.95779938E-02 -4.85551149E-01  9.04911765E-16 -1.96448179E-15
  1.20286838E+00  5.50769295E-01 -1.06094474E+00 -2.90199747E-03 -8.99726790E-16
 -1.20254235E+00 -5.34482477E-01 -3.48934000E-01  9.97010633E-01  2.51607914E-15
 -3.95679167E-01  1.25157515E-01 -2.70582181E-01 -3.72926147E-01  1.32022097E-15
  2.55101508E+00 -6.95825069E-02 -7.99266550E-02 -1.15841346E-15 -1.88072916E+00
 -1.65381963E+00 -1.10163167E+00  3.34634152E-01 -9.30677588E-16 -2.27461122E-16
  7.24934433E-01 -2.79460341E-01 -7.01777700E-01 -1.00797064E-01  4.52491378E-16
  7.05644783E-01 -2.86597074E-01  1.33544098E-01 -6.78998341E-01  1.46174449E-15
Total SCF Density                          R   N=         325
  2.07509810E+00 -1.74173729E-01  4.96533445E-01  2.82519363E-02 -4.77158932E-02
  5.67208476E-01  3.98081877E-02 -6.50060944E-02  6.13949996E-02  6.07285120E-01
 -4.39475225E-17 -8.97430561E-17 -6.17303940E-17  2.53600561E-16  8.29051610E-01
 -2.27313922E-01  5.34413279E-01 -2.06696675E-01 -2.95711264E-01  8.28486683E-16
  6.93240704E-01  2.64369994E-02 -5.00305060E-02  3.04021589E-01  8.95260921E-02
 -1.20337397E-16 -1.55514226E-01  1.69019880E-01  3.82294373E-02 -7.16370738E-02
  8.83236653E-02  3.64598274E-01  2.71280313E-16 -2.22815806E-01  8.19247913E-02
  2.25327520E-01 -3.13938912E-17 -7.39067534E-17  1.46125249E-16 -1.50814035E-16
  6.36648552E-01  7.06988328E-16 -2.22476714E-17  2.33174321E-17  4.88897645E-01
 -1.22418442E-02 -5.73692456E-03  3.05389520E-02  4.12863006E-03 -2.13265398E-16
 -1.43802470E-02  1.65558541E-02  5.40897454E-03 -1.53741538E-16  1.77490910E-03
 -1.04843246E-02 -9.16777661E-03  1.42251533E-03  4.23446142E-02 -2.73335642E-16
 -2.43669915E-02  4.91707571E-03  2.54317381E-02 -2.34956241E-16  2.74589979E-04
  3.12434946E-03 -1.18351056E-02 -8.34426480E-03 -9.82045435E-04 -3.33315887E-04
 -4.35949160E-17 -7.81798229E-03 -2.30742994E-04  1.97991425E-04 -3.32829334E-17
  1.08986132E-04  1.73802649E-04  2.55733066E-04  3.25102846E-03 -6.57184136E-03
  2.21238912E-02  1.55406168E-02  1.58177494E-16 -1.74707984E-02  1.32291258E-02
  1.14173322E-02  1.21172155E-16  1.22949917E-03  1.01150826E-03  1.45508442E-05
  1.17444433E-03 -2.80633506E-16  2.49626696E-16 -1.48383117E-16  5.41154868E-17
  2.18903070E-02  2.97084004E-16 -8.55059512E-17  6.95056683E-18  1.68100901E-02
 -1.35936368E-17 -4.18219757E-18 -3.79808057E-18 -1.89735281E-18  5.77992412E-04
  2.39271080E-16 -2.44735635E-16  1.15655069E-16 -1.01053173E-16  2.98678704E-02
 -2.05053819E-16  5.67907115E-17 -2.99272614E-17  2.29362518E-02 -1.12805628E-18
 -1.69242006E-17  1.35144043E-18  9.32322023E-18  7.88632269E-04  1.07603637E-03
 -4.02879353E-02  9.48709439E-02  3.17533633E-01  7.31438030E-03  3.50550909E-16
  1.64840826E-02  1.63040511E-01  2.63927627E-02  3.87840697E-16  1.64039509E-02
 -2.18956838E-03 -2.50659594E-03  1.09610691E-02 -1.43840135E-17  2.35278226E-17
  2.08118089E-01  1.01373339E-02 -2.35906587E-02  2.06113986E-01  1.83955117E-02
 -5.50678285E-16 -7.99807028E-02  1.10362699E-01  3.01727991E-02 -3.49827766E-16
  1.11502421E-02  3.24159437E-04 -2.24102786E-04  8.00001542E-03 -7.14303481E-17
  2.69541120E-17  1.13954374E-01  7.50168804E-02  1.06548093E-02 -2.22024145E-02
 -1.68846590E-02  3.48482238E-03 -2.53849761E-17 -1.95609161E-02 -7.65426174E-03
  1.88294101E-03 -2.72888843E-17 -7.78918590E-04  5.37288226E-04  4.04982832E-04
 -3.80623909E-04 -7.71849004E-18  6.31297271E-18 -1.53555979E-02 -5.85845681E-03
  1.65075728E-03  1.26979286E-03 -2.37725194E-03  3.26563234E-03  1.89756882E-02
 -3.10393612E-17 -9.91164728E-03  3.51524965E-03  1.15306270E-02 -3.40723982E-17
  2.03780532E-04  1.31959458E-03 -7.54050511E-06  5.36669129E-04  1.84398343E-19
 -4.13682870E-18  9.29703115E-04  1.06881609E-03  7.90421749E-05  5.96296504E-04
  3.31933211E-16 -1.94992174E-16  6.62032283E-17  6.95117346E-17  2.73426729E-02
 -2.08220272E-16  4.48455645E-17  6.23553378E-17  2.09970922E-02 -4.09073512E-18
 -5.20901309E-18 -3.61899980E-19  1.03420650E-17  7.21956868E-04  9.85062210E-04
  1.37694027E-18  8.46798909E-18  6.61334584E-18  1.11249106E-18  9.01779518E-04
 -4.07077221E-02  9.70779173E-02 -9.94365718E-02  3.01365762E-01 -4.63192134E-16
  1.50066412E-02 -2.85168259E-02  1.61900830E-01 -5.86337776E-16 -5.58647909E-03
  2.05814289E-02 -1.92826320E-03  2.11431532E-03  1.08234645E-16 -1.62343407E-16
 -4.03619407E-02 -3.97885393E-02  1.28090338E-05  9.04465078E-03 -4.56200380E-17
  2.09225122E-01  1.03800075E-02 -2.31405513E-02 -4.85186053E-02  2.05570428E-01
  3.85990134E-16 -8.44846698E-02 -5.89393159E-03  1.17427893E-01  1.51529135E-16
 -2.26730967E-03  1.47655386E-02  1.28731386E-04  2.76497483E-03  4.20346704E-17
 -3.63927240E-17 -3.81624348E-02 -1.89174598E-02  3.60050472E-03  6.26027328E-03
  2.77801065E-17  1.16545596E-01  7.82299418E-02 -2.42945634E-03  5.34498699E-03
  1.27647072E-02  1.48764123E-02  1.47961533E-16 -2.95924016E-03  7.81291583E-03
  9.50306190E-03  1.09337694E-16  6.65447156E-04  9.11511354E-04 -1.53200054E-04
  7.38872894E-04  6.06548725E-18  1.23553029E-18  8.44298312E-03  4.44587564E-03
 -6.31008129E-04  4.88008269E-04  4.57797597E-18  6.69463290E-03  3.54685817E-03
  7.15045458E-04  1.03729946E-02 -2.15966292E-02  1.35282225E-02 -9.79672182E-03
 -8.98509853E-17 -2.15743574E-02  7.02597254E-03 -3.26778466E-03 -5.63833303E-17
  8.28147449E-04 -5.63759796E-04  3.34211330E-04  4.32293442E-04 -1.82465937E-17
  1.29248439E-17  2.78806113E-03  5.28070978E-03  5.26615668E-04 -2.60455850E-04
  6.06591894E-18 -1.35570988E-02 -4.83725257E-03 -2.94646907E-04  1.49521784E-03
 -3.50533986E-16  4.29114101E-16 -1.37022263E-18  3.96176914E-17  2.74484205E-02
  4.54241508E-16 -1.76492895E-17  1.49101183E-18  2.10782984E-02 -8.25966952E-18
 -9.71799365E-18 -7.55074606E-18  2.88578523E-18  7.24749032E-04  9.88871933E-04
  1.18261671E-16 -2.39136315E-17 -2.15610283E-17 -2.67469478E-19  9.05267146E-04
  1.09248338E-16  1.83168297E-17  1.26786819E-17 -2.31393919E-17  9.08768262E-04
Mulliken Charges                           R   N=           6
 -6.03879279E-01  3.05135773E-01  2.98743506E-01 -8.34000000E-01  4.17000000E-01
  4.17000000E-01
ONIOM Charges                              I   N=          16
           0           0           0           0           0           0
           0           0           0           0           0           0
           0           0           0           0
ONIOM Multiplicities                       I   N=          16
           1           0           0           0           0           0
           0           0           0           0           0           0
           0           0           0           0
Atom Layers                                I   N=           6
           1           1           1           1           1           1
Atom Modifiers                             I   N=           6
           0           0           0           0           0           0
Force Field                                I                0
Int Atom Modified Types                    I   N=           6
           0           0           0           0           0           0
Link Atoms                                 I   N=           6
           0           0           0           0           0           0
Atom Modified MM Charges                   R   N=           6
  0.00000000E+00  0.00000000E+00  0.00000000E+00  0.00000000E+00  0.00000000E+00
  0.00000000E+00
Link Distances                             R   N=          24
  0.00000000E+00  0.00000000E+00  0.00000000E+00  0.00000000E+00  0.00000000E+00
  0.00000000E+00  0.00000000E+00  0.00000000E+00  0.00000000E+00  0.00000000E+00
  0.00000000E+00  0.00000000E+00  0.00000000E+00  0.00000000E+00  0.00000000E+00
  0.00000000E+00  0.00000000E+00  0.00000000E+00  0.00000000E+00  0.00000000E+00
  0.00000000E+00  0.00000000E+00  0.00000000E+00  0.00000000E+00
Cartesian Gradient                         R   N=          18
  0.00000000E+00  0.00000000E+00  0.00000000E+00  0.00000000E+00  0.00000000E+00
  0.00000000E+00  0.00000000E+00  0.00000000E+00  0.00000000E+00  0.00000000E+00
  0.00000000E+00  0.00000000E+00  0.00000000E+00  0.00000000E+00  0.00000000E+00
  0.00000000E+00  0.00000000E+00  0.00000000E+00
Dipole Moment                              R   N=           3
  9.32498112E-01  1.31696218E+00 -8.40022632E-16
Quadrupole Moment                          R   N=           6
 -6.41130987E-01 -3.94142036E-01  1.03527302E+00 -6.03244526E+00  5.71300850E-16
  3.32268369E-15
QEq coupling tensors                       R   N=          36
 -1.17619740E+00  7.28309837E-01 -6.99673983E-01  0.00000000E+00  0.00000000E+00
  1.87587138E+00 -4.79086871E-01  9.46408926E-04  2.04705229E-01  0.00000000E+00
  0.00000000E+00  2.74381642E-01  1.41536748E-01  2.15940141E-01 -4.19320577E-01
  0.00000000E+00  0.00000000E+00  2.77783829E-01 -9.56604135E-02  6.95396173E-02
 -4.64771318E-02  0.00000000E+00  0.00000000E+00  1.42137545E-01  2.66295308E-01
  3.09233944E-02 -1.50172467E-01  0.00000000E+00  0.00000000E+00 -1.16122841E-01
 -1.09524828E-01 -1.08088030E-01  2.32462734E-01  0.00000000E+00  0.00000000E+00
 -1.22937906E-01
