[0] [0] iop(9/40=20)                                                    
SP        RCAM-B3LYP TD-FC                                            6-31G(d)            
Number of atoms                            I                6
Info1-9                                    I   N=           9
          15          15           0           0           0         110
           1         218           1
Charge                                     I                1
Multiplicity                               I                1
Number of electrons                        I               16
Number of alpha electrons                  I                8
Number of beta electrons                   I                8
Number of basis functions                  I               38
Number of independent functions            I               38
Number of point charges in /Mol/           I                0
Number of translation vectors              I                0
Atomic numbers                             I   N=           6
           6           1           1           7           1           1
Nuclear charges                            R   N=           6
  6.00000000E+00  1.00000000E+00  1.00000000E+00  7.00000000E+00  1.00000000E+00
  1.00000000E+00
Current cartesian coordinates              R   N=          18
  1.28141189E+00 -3.16643401E-02 -2.24636999E-03  1.90602699E+00  1.82803754E+00
  1.11356930E-01  2.59450467E+00 -1.52046235E+00 -2.28665090E-01 -1.11000614E+00
 -3.20479001E-02  4.36104400E-02 -2.05313091E+00  1.85170167E+00 -4.16498900E-01
 -2.57267303E+00 -1.33695278E+00 -4.68658300E-02
Force Field                                I                0
Int Atom Types                             I   N=           6
           0           0           0           0           0           0
MM charges                                 R   N=           6
  0.00000000E+00  0.00000000E+00  0.00000000E+00  0.00000000E+00  0.00000000E+00
  0.00000000E+00
Integer atomic weights                     I   N=           6
          12           1           1          14           1           1
Real atomic weights                        R   N=           6
  1.20000000E+01  1.00782504E+00  1.00782504E+00  1.40030740E+01  1.00782504E+00
  1.00782504E+00
Atom fragment info                         I   N=           6
           0           0           0           0           0           0
Atom residue num                           I   N=           6
           0           0           0           0           0           0
Nuclear spins                              I   N=           6
           0           1           1           2           1           1
Nuclear ZEff                               R   N=           6
 -3.60000000E+00 -1.00000000E+00 -1.00000000E+00 -4.55000000E+00 -1.00000000E+00
 -1.00000000E+00
Nuclear ZNuc                               R   N=           6
  6.00000000E+00  1.00000000E+00  1.00000000E+00  7.00000000E+00  1.00000000E+00
  1.00000000E+00
Nuclear QMom                               R   N=           6
  0.00000000E+00  0.00000000E+00  0.00000000E+00  2.04400000E+00  0.00000000E+00
  0.00000000E+00
Nuclear GFac                               R   N=           6
  0.00000000E+00  2.79284600E+00  2.79284600E+00  4.03761000E-01  2.79284600E+00
  2.79284600E+00
MicOpt                                     I   N=           6
          -1          -1          -1          -1          -1          -1
Number of contracted shells                I               16
Number of primitive shells                 I               38
Pure/Cartesian d shells                    I                1
Pure/Cartesian f shells                    I                0
Highest angular momentum                   I                2
Largest degree of contraction              I                6
Shell types                                I   N=          16
           0          -1          -1           2           0           0
           0           0           0          -1          -1           2
           0           0           0           0
Number of primitives per shell             I   N=          16
           6           3           1           1           3           1
           3           1           6           3           1           1
           3           1           3           1
Shell to atom map                          I   N=          16
           1           1           1           1           2           2
           3           3           4           4           4           4
           5           5           6           6
Primitive exponents                        R   N=          38
  3.04752488E+03  4.57369518E+02  1.03948685E+02  2.92101553E+01  9.28666296E+00
  3.16392696E+00  7.86827235E+00  1.88128854E+00  5.44249258E-01  1.68714478E-01
  8.00000000E-01  1.87311370E+01  2.82539436E+00  6.40121692E-01  1.61277759E-01
  1.87311370E+01  2.82539436E+00  6.40121692E-01  1.61277759E-01  4.17351146E+03
  6.27457911E+02  1.42902093E+02  4.02343293E+01  1.28202129E+01  4.39043701E+00
  1.16263619E+01  2.71627981E+00  7.72218397E-01  2.12031498E-01  8.00000000E-01
  1.87311370E+01  2.82539436E+00  6.40121692E-01  1.61277759E-01  1.87311370E+01
  2.82539436E+00  6.40121692E-01  1.61277759E-01
Contraction coefficients                   R   N=          38
  1.83473713E-03  1.40373228E-02  6.88426223E-02  2.32184443E-01  4.67941348E-01
  3.62311985E-01 -1.19332420E-01 -1.60854152E-01  1.14345644E+00  1.00000000E+00
  1.00000000E+00  3.34946043E-02  2.34726953E-01  8.13757326E-01  1.00000000E+00
  3.34946043E-02  2.34726953E-01  8.13757326E-01  1.00000000E+00  1.83477216E-03
  1.39946270E-02  6.85865518E-02  2.32240873E-01  4.69069948E-01  3.60455199E-01
 -1.14961182E-01 -1.69117479E-01  1.14585195E+00  1.00000000E+00  1.00000000E+00
  3.34946043E-02  2.34726953E-01  8.13757326E-01  1.00000000E+00  3.34946043E-02
  2.34726953E-01  8.13757326E-01  1.00000000E+00
P(S=P) Contraction coefficients            R   N=          38
  0.00000000E+00  0.00000000E+00  0.00000000E+00  0.00000000E+00  0.00000000E+00
  0.00000000E+00  6.89990666E-02  3.16423961E-01  7.44308291E-01  1.00000000E+00
  0.00000000E+00  0.00000000E+00  0.00000000E+00  0.00000000E+00  0.00000000E+00
  0.00000000E+00  0.00000000E+00  0.00000000E+00  0.00000000E+00  0.00000000E+00
  0.00000000E+00  0.00000000E+00  0.00000000E+00  0.00000000E+00  0.00000000E+00
  6.75797439E-02  3.23907296E-01  7.40895140E-01  1.00000000E+00  0.00000000E+00
  0.00000000E+00  0.00000000E+00  0.00000000E+00  0.00000000E+00  0.00000000E+00
  0.00000000E+00  0.00000000E+00  0.00000000E+00
Coordinates of each shell                  R   N=          48
  1.28141189E+00 -3.16643401E-02 -2.24636999E-03  1.28141189E+00 -3.16643401E-02
 -2.24636999E-03  1.28141189E+00 -3.16643401E-02 -2.24636999E-03  1.28141189E+00
 -3.16643401E-02 -2.24636999E-03  1.90602699E+00  1.82803754E+00  1.11356930E-01
  1.90602699E+00  1.82803754E+00  1.11356930E-01  2.59450467E+00 -1.52046235E+00
 -2.28665090E-01  2.59450467E+00 -1.52046235E+00 -2.28665090E-01 -1.11000614E+00
 -3.20479001E-02  4.36104400E-02 -1.11000614E+00 -3.20479001E-02  4.36104400E-02
 -1.11000614E+00 -3.20479001E-02  4.36104400E-02 -1.11000614E+00 -3.20479001E-02
  4.36104400E-02 -2.05313091E+00  1.85170167E+00 -4.16498900E-01 -2.05313091E+00
  1.85170167E+00 -4.16498900E-01 -2.57267303E+00 -1.33695278E+00 -4.68658300E-02
 -2.57267303E+00 -1.33695278E+00 -4.68658300E-02
Constraint Structure                       R   N=          18
  1.28141189E+00 -3.16643401E-02 -2.24636999E-03  1.90602699E+00  1.82803754E+00
  1.11356930E-01  2.59450467E+00 -1.52046235E+00 -2.28665090E-01 -1.11000614E+00
 -3.20479001E-02  4.36104400E-02 -2.05313091E+00  1.85170167E+00 -4.16498900E-01
 -2.57267303E+00 -1.33695278E+00 -4.68658300E-02
Num ILSW                                   I              100
ILSW                                       I   N=         100
           0           1           0           0           2           0
           0           0           0           0       20419          -1
           0           0           0           0           0           0
           0           0           1           0           0           0
           1           1           0           0           0           0
           0           0      100000           0          -1           0
           0           0           0           0           0           0
           0           0           0           1           0           0
           0           0           1           0           0           0
           0           0           4          41           0           0
           0           0          40           0           0           0
           0           0           0           0           0           0
           0           0           0           0           0           0
           0           0           0           0           0           0
           0           0           0           0           0           0
           0           0           0           0           0           0
           0           0           0           0
Num RLSW                                   I               41
RLSW                                       R   N=          41
  1.00000000E+00  1.00000000E+00  1.00000000E+00  8.10000000E-01  1.00000000E+00
  0.00000000E+00  3.30000000E-01  1.90000000E-01  0.00000000E+00  4.60000000E-01
  0.00000000E+00  3.30000000E-01  1.90000000E-01  0.00000000E+00  4.60000000E-01
  0.00000000E+00  0.00000000E+00  1.00000000E+00  0.00000000E+00  0.00000000E+00
  0.00000000E+00  0.00000000E+00  1.00000000E+00  0.00000000E+00  0.00000000E+00
  0.00000000E+00  0.00000000E+00  1.00000000E+00  0.00000000E+00  0.00000000E+00
  0.00000000E+00  0.00000000E+00  1.00000000E+00  0.00000000E+00  0.00000000E+00
  0.00000000E+00  0.00000000E+00  0.00000000E+00  1.00000000E+00  1.00000000E+00
  0.00000000E+00
MxBond                                     I                3
NBond                                      I   N=           6
           3           1           1           3           1           1
IBond                                      I   N=          18
           2           3           4           1           0           0
           1           0           0           1           5           6
           4           0           0           4           0           0
RBond                                      R   N=          18
  1.00000000E+00  1.00000000E+00  2.00000000E+00  1.00000000E+00  0.00000000E+00
  0.00000000E+00  1.00000000E+00  0.00000000E+00  0.00000000E+00  2.00000000E+00
  1.00000000E+00  1.00000000E+00  1.00000000E+00  0.00000000E+00  0.00000000E+00
  1.00000000E+00  0.00000000E+00  0.00000000E+00
Virial Ratio                               R      2.010089008634963E+00
SCF Energy                                 R     -9.488977612713327E+01
CIS Energy                                 R     -9.449535552126459E+01
Total Energy                               R     -9.449535552126459E+01
Post-SCF wavefunction norm                 R      1.000000000000000E+00
RMS Density                                R      6.219736905602176E-09
External E-field                           R   N=          35
  0.00000000E+00  0.00000000E+00  0.00000000E+00  0.00000000E+00  0.00000000E+00
  0.00000000E+00  0.00000000E+00  0.00000000E+00  0.00000000E+00  0.00000000E+00
  0.00000000E+00  0.00000000E+00  0.00000000E+00  0.00000000E+00  0.00000000E+00
  0.00000000E+00  0.00000000E+00  0.00000000E+00  0.00000000E+00  0.00000000E+00
  0.00000000E+00  0.00000000E+00  0.00000000E+00  0.00000000E+00  0.00000000E+00
  0.00000000E+00  0.00000000E+00  0.00000000E+00  0.00000000E+00  0.00000000E+00
  0.00000000E+00  0.00000000E+00  0.00000000E+00  0.00000000E+00  0.00000000E+00
IOpCl                                      I                0
IROHF                                      I                0
Alpha Orbital Energies                     R   N=          38
 -1.47674628E+01 -1.06144003E+01 -1.32081494E+00 -1.03106333E+00 -8.93470147E-01
 -8.65193966E-01 -7.43806502E-01 -7.04392318E-01 -2.61487621E-01 -1.46940947E-01
 -9.03489223E-02 -3.72941796E-02  3.60598596E-02  1.00256501E-01  3.28568899E-01
  3.34876886E-01  3.93451181E-01  4.48852098E-01  5.04653223E-01  5.68709977E-01
  6.08301033E-01  6.57925674E-01  7.03091074E-01  7.68309806E-01  9.61319410E-01
  1.07773089E+00  1.22147619E+00  1.30333088E+00  1.55884508E+00  1.69088560E+00
  1.75232156E+00  1.96059740E+00  2.10786530E+00  2.19725512E+00  2.42495142E+00
  2.60403554E+00  3.52966361E+00  3.90257609E+00
Alpha MO coefficients                      R   N=        1444
  7.51994443E-05  3.36299916E-04 -2.44617261E-04 -7.84387861E-06  8.51432163E-06
 -5.77475787E-04  2.81543913E-04  1.32074452E-04 -1.61865591E-05 -1.48500209E-04
  1.51308476E-05  1.06485066E-05  1.95116333E-05  6.02778612E-07 -5.61091870E-07
 -7.46826576E-05 -5.77749881E-05  2.28320279E-05  2.27349776E-05  9.92680292E-01
  3.46254327E-02  2.46566403E-04  2.49671792E-05 -1.18609419E-04  4.27736169E-03
 -2.22340560E-05 -8.04021196E-05  1.12328036E-05 -8.11669567E-03 -8.27171860E-03
 -8.30177695E-03  2.08449659E-05 -2.28974249E-06  1.78179099E-06  3.03493600E-04
 -4.02711668E-04  3.01593228E-04 -5.37196317E-04  9.92607924E-01  4.93821833E-02
 -1.13821439E-03  6.88536824E-05  8.54387861E-05 -9.33123868E-03 -7.57396110E-04
 -4.17302985E-05  5.07731163E-05 -8.89452665E-03 -9.68156141E-03 -1.01522808E-02
 -1.28853552E-04 -5.25005607E-05  4.54378633E-05 -3.44582087E-04  2.33398782E-03
 -3.85903576E-04  2.36704263E-03 -3.60766063E-04 -1.83787199E-04 -3.74557730E-04
  5.66254793E-05  8.43683722E-06  1.20759072E-03 -9.46760587E-04 -5.07277140E-04
 -2.57446021E-05 -7.92680971E-04 -1.77357991E-04 -4.40806737E-05 -2.94505856E-06
 -3.94127328E-06  1.45820186E-06  6.38237720E-05  1.38613058E-05 -1.60533494E-04
 -5.01768747E-04 -1.19384645E-01  2.38071579E-01 -1.56534397E-01  1.15327983E-02
  1.79354634E-03  8.91922359E-02  1.63754253E-02 -5.37461491E-03 -6.33466090E-04
  1.52909819E-02 -8.16019418E-03 -1.63760897E-02 -7.53325923E-04 -6.13946943E-04
  7.16861449E-04  5.01746796E-02  3.27570623E-03  3.34276683E-02 -1.01449452E-02
 -1.90916025E-01  4.00649499E-01  9.22917821E-02  3.48831670E-03 -1.49570710E-02
  3.92458459E-01  2.06339293E-02  1.33688771E-02 -1.03598928E-02  1.25812118E-02
  1.09717657E-03 -1.66539395E-02  3.24003545E-03  1.61656804E-03 -3.18608479E-03
  7.71991718E-02 -5.84779151E-03  8.60050008E-02 -5.66048813E-03 -1.54704031E-01
  3.26675759E-01  3.14103837E-02  3.43614787E-02  2.89642326E-03  2.59120554E-01
  2.40536191E-02  1.09958282E-02 -3.15324425E-03 -2.87871564E-03  8.74672967E-03
 -1.72886527E-02 -5.62797121E-03 -2.32360805E-03  2.70369924E-03  1.31122361E-01
  2.42144937E-02  1.16003002E-01  2.33544203E-02  8.19703708E-02 -1.79986700E-01
  3.20026250E-01  4.51948646E-02  2.04060653E-02 -2.52435721E-01  1.39549129E-01
  1.74141217E-02  1.42602794E-02  1.53063761E-03 -1.30973133E-02  6.19643745E-03
 -5.59594197E-03 -4.44503412E-03  2.01406961E-03 -9.37897049E-02 -1.78893641E-02
 -1.71969312E-01 -2.67290576E-02  4.49445517E-02 -9.59098521E-02 -1.82229872E-01
  2.90626184E-01  1.89883302E-02 -1.30510413E-01 -4.99998407E-02  8.19787360E-02
  5.77369390E-03  2.29950379E-03 -4.35476177E-03  9.81512787E-04 -2.40120589E-03
  2.14772202E-03 -1.83969047E-03  5.59876422E-02  3.39809695E-02 -1.93678755E-01
 -7.69778583E-02 -6.78075732E-03  1.12765578E-02  1.24569355E-01  3.69678167E-01
 -1.54490674E-02  1.79199342E-02  5.67987568E-02  2.02417958E-01 -1.02177042E-02
 -7.31456392E-03  3.25597968E-03 -1.56101751E-03 -5.00701186E-03  3.35758679E-04
 -6.38284489E-03  1.31850534E-01  4.72196866E-02 -1.61510586E-01 -4.97252691E-02
 -3.87057124E-02  7.12317700E-02  3.92744002E-01  1.47073118E-01 -2.29624289E-02
  1.47289903E-01  8.68839114E-02  3.56416885E-02 -6.27250508E-03 -1.96263541E-02
  2.88305292E-02  1.75539166E-04 -8.29685958E-03  2.28520468E-03  2.50156183E-03
  1.76979965E-01  9.22476081E-02  1.10305964E-01  4.74100226E-02  1.99336667E-02
 -5.21935679E-02 -3.60208992E-01  1.74301508E-01 -4.24254909E-02 -2.07578670E-02
 -1.52429554E-01  1.08334370E-01 -2.55699235E-02  1.53460845E-03  1.46136423E-02
 -3.83390863E-04  2.08315776E-03  3.05104666E-03 -4.29550802E-03  1.43170277E-01
  6.57425442E-02  5.99268195E-02  3.48595763E-02 -3.18182735E-03  8.11146883E-03
  5.04030343E-03  3.15368744E-01  2.11015334E-01  1.37550873E-02 -7.60069001E-03
  1.54026252E-01  9.25283483E-02 -1.03618356E-02  1.09144668E-02  6.46596820E-04
  2.55511001E-02 -1.49796477E-02  7.92599367E-04  1.90375394E-01  1.06916248E-01
 -1.53441702E-01 -8.12046320E-02 -4.50976608E-04  3.89360677E-03 -4.43305131E-02
 -2.34940412E-01  3.05817286E-01 -1.82907604E-02 -2.01837380E-02 -1.60816590E-01
  1.94017341E-01  8.76540867E-03 -4.53138005E-03 -3.39148702E-03  2.55659137E-02
  9.29927417E-03  6.06536501E-03 -1.54629690E-01 -9.34631918E-02  1.25261604E-01
  7.24324131E-02  4.11429247E-03 -9.41149200E-03  4.35962727E-02 -2.29691571E-01
  2.63091750E-01 -8.67745385E-03  1.95895264E-02 -1.26425296E-01  1.28286810E-01
  5.49728033E-03 -5.66226977E-03  1.82440657E-03 -2.07256862E-02 -2.58701771E-02
  1.80646158E-03 -1.26198107E-01 -7.21800943E-02  1.15043978E-01  6.98212112E-02
 -1.31645780E-02  3.11074148E-02 -2.16311072E-02  2.17784657E-01  4.24708942E-01
  6.10595318E-02 -1.53676522E-02  1.54748470E-01  2.84072035E-01 -3.48788456E-03
  5.72217228E-03 -3.36809814E-03 -1.85321952E-02  1.53832145E-02 -3.43881320E-03
  9.91632560E-02  7.02654620E-02 -9.22382716E-02 -5.64525936E-02 -6.78461439E-03
  1.75243979E-02  6.63021971E-03 -4.94407424E-02  5.22962887E-01  1.26739461E-02
  2.57911605E-02 -7.33065970E-02  5.78226635E-01 -2.16645355E-03  9.51364216E-04
 -9.16213042E-04  5.21015860E-03  2.14135639E-02  1.48090362E-03  1.48793367E-02
  4.09100288E-02 -2.79182291E-02 -5.74645265E-02  1.80594971E-02 -4.26773096E-02
  2.58285930E-02 -5.10325788E-02 -3.80938726E-01 -1.11429912E-01  3.85226524E-02
 -5.43076965E-02 -4.55114709E-01  1.02093082E-03  2.08156372E-03  3.04528579E-03
 -6.23431303E-03  2.99160766E-02 -6.72915386E-04  6.25757872E-02  1.33889157E-01
  4.04588435E-03  1.67453500E-02  2.71531390E-03 -2.00226046E-02 -8.95326692E-02
 -1.08332483E-01 -5.72818852E-02 -1.00854923E-01 -2.78358971E-01 -2.48981256E-01
 -1.25726714E-01 -1.65456076E-02  1.12967179E-02  7.63180970E-04  1.80963043E-02
 -5.34459847E-03 -3.52723841E-03  5.09798566E-02  5.20621514E-01 -5.26551835E-02
 -1.06775494E-01  9.95253275E-02 -1.88034585E-01  1.37170274E-01 -2.31214100E-01
  1.09781819E-01 -1.19428172E+00  2.29739600E-01 -3.42140405E-01  1.93154719E-01
  1.12174697E-02  2.67410001E-02  1.36294779E-02 -1.75297939E-02 -3.16678900E-03
 -1.74567678E-03  2.03305560E-01  1.20008165E+00  2.28970217E-02  3.64506963E-01
 -2.31843998E-02  5.14247523E-02 -1.11208490E-01  1.23047457E-01  2.40022857E-02
  2.07301486E-01 -2.38306489E-01  2.31873289E-01  5.69637450E-02 -5.79283083E-03
 -3.64172018E-04 -1.38746446E-03 -3.20083081E-02 -5.04547316E-04  2.33980699E-03
 -6.82458894E-02 -5.01198276E-01  5.54674802E-02  4.15817061E-01  7.50498659E-02
 -1.30187894E-01  1.49184793E-01  2.99389142E-01 -1.06291980E-02 -1.06961840E+00
  2.45705258E-01  5.38221468E-01 -1.80439767E-02  2.68354249E-02  6.28053149E-03
  1.14811236E-02  2.59797619E-02 -4.75519442E-04  2.04770945E-03 -7.12698585E-02
 -2.92779544E-01  1.96308650E-01  1.50367361E+00 -1.32656349E-01  2.62543323E-01
  1.79243710E-01 -3.92905495E-02 -2.88623912E-02  2.12814180E+00  5.33871780E-01
 -4.94527923E-02 -7.91198717E-02 -9.58537731E-03 -1.39235301E-02  5.24801159E-03
  8.16613555E-03 -1.15487302E-03 -3.50604527E-03 -7.31464191E-02 -1.21108836E+00
 -1.16894676E-01 -1.63523819E+00  2.98917428E-02 -5.97561407E-02 -3.31833696E-02
 -1.69906928E-02  3.17767360E-02 -2.93937774E-01 -1.70412617E-01 -1.93196538E-04
  5.05382427E-02  1.66053817E-02 -8.70190068E-03  7.14999000E-03 -1.21386639E-02
 -4.29970239E-04 -4.08634305E-03  5.03663910E-02  2.07993864E-01  2.40066449E-03
  2.77072449E-02 -1.20500726E-02 -1.08827468E-03 -3.95150038E-02 -4.04896881E-01
 -5.08322361E-02  2.13755620E-01 -4.30711730E-01 -1.44227632E+00 -8.46201366E-02
 -2.28439387E-02  1.55672932E-02  5.47425932E-03  4.65188357E-04  5.09006518E-03
  3.79546007E-03  6.66024862E-02  1.79956592E+00 -4.38139257E-02 -1.24887773E+00
  1.52428751E-02 -3.80158127E-02 -1.43658221E-01  2.51278980E-01 -3.37413363E-02
 -3.45658889E-01 -3.34286157E-01  7.15141312E-01 -1.97502068E-02  2.12723392E-03
  2.53365630E-03  2.90686170E-03 -2.09429830E-02 -4.11865801E-03  2.86488039E-03
 -6.29983167E-02 -8.51941055E-01 -9.01363244E-03  4.15657139E-01  6.15898417E-02
  2.21953156E-02  1.26048727E-01 -1.59447314E-01 -2.10589087E-02 -2.38613479E+00
  2.55947075E+00 -5.86915727E-01 -1.27984375E-01  4.38038716E-02 -3.33630281E-02
 -7.25253138E-03  4.85944249E-03 -2.97114727E-03 -4.12242411E-03 -7.31275577E-02
  6.43239112E-01  1.43532259E-02 -1.11162969E+00 -6.92152742E-02  7.50257530E-02
  3.22585184E-01  4.11028817E-02  1.60359297E-02  2.27569523E+00  1.70686027E+00
  2.69159438E-01  2.09314542E-02 -6.37268225E-03 -1.40182972E-02 -3.22474144E-02
 -1.07913985E-02 -2.08919332E-03 -4.11667382E-03  4.28435425E-02  1.60713798E-01
  2.05681769E-02  8.70324407E-01  2.63977492E-02 -4.84492440E-01  7.34622476E-01
  3.42614217E-01  9.80106064E-02 -4.26382696E-01 -7.59008660E-02 -6.70136951E-01
 -1.67764059E-01  6.54540359E-03 -2.81663286E-02 -3.15678484E-02  3.48088936E-02
 -4.41008367E-03 -2.94751845E-03  1.15622959E-01  1.90814109E-01 -1.46219401E-01
 -2.06107525E-01 -6.28243820E-02 -2.22342157E-03 -5.22480986E-04  1.02182837E-01
  4.63966564E-02  5.26787631E-01  9.87291538E-01 -4.59493525E-03 -1.69550192E-02
 -1.78782898E-01  4.28877357E-02  2.93142122E-02 -3.58113217E-02  8.22451967E-03
 -1.11481253E-02  1.65373846E-01 -1.38473038E-01 -3.78816970E-01  6.66253294E-01
  6.57662668E-03 -5.39867054E-02  3.91406702E-02  1.45061952E-01 -9.72127756E-01
 -1.96326075E-02  4.01790416E-02 -1.87284957E-01  1.08101983E+00  1.08155463E-02
 -3.79640389E-03 -7.38778956E-03  7.20373335E-03  4.21320930E-02 -1.22961456E-03
  1.81150056E-02 -4.27283746E-03 -1.74566023E-02 -5.53170993E-03 -5.39919755E-03
 -2.68985643E-02  4.07301184E-02 -4.49056430E-02 -2.24775056E-01  8.22937293E-02
  3.41283379E-02  3.98873133E-02  6.34586336E-02 -3.10227540E-02  2.28547066E-04
 -2.16114507E-03 -3.96763786E-03 -7.15934624E-02 -2.02836705E-03  2.70743909E-02
  3.80207841E-02 -6.55438036E-02  5.68667319E-02  3.34470652E-02  3.54173013E-02
  5.78209694E-01 -3.51654051E-01 -3.14302858E-02 -5.81621824E-01 -1.03720355E+00
  1.14620365E+00  1.44741183E-01  7.49597263E-02  2.35575871E-02 -3.05309882E-02
 -1.05834448E-01 -4.02381705E-03  1.49292126E-02 -1.23028143E-01 -2.38378560E-01
  5.50025771E-01  5.44769081E-01 -2.69256684E-02  1.46906897E-01  8.06550865E-02
 -1.14868577E-01 -9.04983675E-02 -5.34265589E-01  3.52130544E-01 -5.04633927E-02
  4.19011160E-02 -8.87876765E-02  3.55074554E-02  4.75049443E-02  8.97872796E-02
 -2.77358448E-03  1.88681684E-02 -3.18843082E-01  3.24022547E-01  2.64128088E-01
 -1.24838046E-02 -6.10052172E-02 -8.33155028E-01 -2.17616618E-02 -2.68890067E-01
 -1.88313180E-03  2.05166872E+00  1.15776354E-01  1.13254665E+00  4.16220072E-02
 -7.73495736E-02 -1.90065980E-01  7.91253064E-02 -9.88274357E-03  1.76285915E-02
 -2.43442182E-02 -6.26083410E-01 -7.90739008E-01 -4.17487577E-01  2.76865245E-01
 -6.27514908E-03 -1.97489207E-01 -1.45902628E-01  1.04189395E-01 -9.03945402E-02
 -8.23937791E-02 -6.68775005E-02 -3.76889997E-01  7.79489251E-02 -6.87603978E-02
 -9.16685153E-02  4.82598479E-02  2.56975333E-02 -1.14587779E-02  1.20739852E-02
 -3.38130995E-01  3.18507693E-01 -4.77473680E-02 -1.70695783E-01  1.45901458E-02
  3.61716139E-02 -7.84542942E-03  3.61257618E-02  3.05109985E-01  2.26679337E-01
 -8.06478945E-02 -1.61510477E-01 -7.18813139E-01  4.50827315E-02 -2.48054292E-04
 -1.66733969E-02  2.71467129E-02  3.94664541E-02  2.70053576E-03  7.52310396E-02
  3.04089001E-02  5.85830194E-03 -1.03459027E-01 -3.96061186E-03  4.50897965E-03
  1.35193620E-01 -1.04791636E-01 -9.03634124E-01 -9.12788852E-02 -3.94214754E-01
  1.23915172E-01  1.23699204E+00 -2.32633866E-02 -1.99864080E-02  6.83573217E-03
 -3.57652051E-02 -2.39692857E-02  1.86042661E-03 -2.48845862E-02 -3.33091083E-02
 -1.89120295E-01  6.89953261E-02 -3.55651664E-02 -6.25898498E-02  7.04971373E-02
 -4.38068321E-01 -3.40796875E-02 -4.20896889E-01 -7.60294987E-02  1.21002157E+00
  1.16266956E-02 -8.21293171E-02  4.68543240E-03  3.17902979E-02  5.44983992E-02
 -1.21055140E-02 -6.66054770E-03 -2.71547617E-02 -7.02075290E-01 -1.62139685E-01
  9.13327855E-01  3.00746436E-02 -3.35010831E-01 -1.21984200E-01 -3.29368353E-01
 -5.84577606E-02  5.69626954E-01  7.42806491E-01  3.03985214E-01  1.12006859E-01
 -5.14214962E-02  1.17859741E-01 -1.26115755E-01 -6.55090188E-02  1.77559219E-02
 -5.37605757E-02  9.16468042E-01 -1.09322117E+00  2.88396855E-01  3.73800788E-01
  3.36848025E-02 -3.07806363E-01 -2.58827478E-02 -3.42610134E-01 -3.06596166E-02
  1.85384975E+00 -9.10659456E-01  8.13211933E-01  2.40270850E-01  9.58243481E-02
 -3.99364168E-02 -3.59044947E-02  7.55856812E-02 -4.22978270E-03  1.74751052E-02
  2.08942237E-01 -7.76403058E-01  5.11674100E-02  4.52681397E-01 -2.50987633E-02
 -1.09369143E-02  3.83582608E-01 -5.23680874E-01  2.30767402E-01 -5.83493043E-01
 -1.66436913E+00  6.66741805E-01 -4.40519461E-01 -9.68758104E-02 -1.23948178E-01
  9.40987207E-02 -1.37250302E-01  3.02858768E-03  1.88899891E-02 -1.03841101E-01
 -9.38483359E-01 -6.81550604E-01  3.19051517E-01  1.85579000E-02 -4.35168609E-01
  1.17760822E-01  4.80418625E-01  5.65479935E-02  1.89707569E+00 -7.29714633E-01
 -1.12972053E+00 -9.53564892E-02  1.25701605E-01 -1.18422286E-01 -1.68719294E-02
 -6.85700426E-02 -1.80976846E-02 -4.73899248E-04 -3.76316329E-01  9.56432193E-01
  1.60910212E-01 -9.23820318E-01  1.54427714E-02 -3.42547559E-01  7.13248337E-01
 -7.47557455E-02  6.10280683E-02  6.52750268E-02 -1.71644820E+00  2.89575907E-01
 -9.78713345E-02 -1.40538880E-01  6.22546051E-03 -6.90417595E-02  9.44853320E-02
  2.08425138E-02 -6.75317089E-03  2.62368187E-01 -8.17020418E-01  4.56006474E-01
 -1.16403722E+00  3.00774895E-02  5.26430985E-02  2.36407762E-01 -6.12440085E-01
 -7.43057713E-02  5.79271392E-01 -9.76938250E-01  1.76707728E+00  1.80021522E-01
  9.62654710E-02  2.04992418E-02 -4.96655095E-02  9.56286189E-02  6.24023521E-03
 -3.79548685E-03  4.59241747E-01 -1.23662786E+00 -3.91717610E-01  1.54625506E+00
 -2.09226399E-03 -1.15113928E-01  4.85223149E-01  6.71314317E-01 -3.35699140E-03
 -1.62346521E-01 -1.18102308E+00 -1.47921411E+00  1.92298246E-03 -8.70051721E-02
 -2.06892103E-03 -2.33369101E-02 -4.02680828E-02 -2.86723836E-03 -4.58542488E-03
 -2.20531691E-02  3.70256175E-01  2.25950210E-01 -1.28824018E+00  1.60211617E-02
 -1.30198844E+00 -5.22526578E-01 -8.19649337E-02  1.44905085E-02  2.50920593E+00
  1.02157912E+00  3.71040963E-01 -5.47817513E-02 -1.29436934E-01  9.53671495E-02
 -1.34996335E-01 -6.96273304E-02 -1.76075129E-02  1.82467917E-02  5.38534767E-01
 -1.54360238E+00  6.53747202E-01 -1.43690199E+00 -4.32313743E-03 -2.03660973E-01
 -9.94740092E-02  1.60220517E-01 -4.14569226E-02  4.06162377E-01  3.52612362E-01
 -4.09239936E-01  8.58877470E-02 -5.43980004E-02  1.16054962E-02 -2.37077741E-02
  2.34467429E-02  9.93429729E-03 -2.32632729E-02  6.66105997E-02  2.71688874E-01
  6.71066199E-02 -1.40386788E-01  1.19114661E-03  7.73130579E-01 -1.43909534E-01
  8.81480852E-02 -2.50783545E-03 -2.68669250E+00  5.96463018E-01  1.02721808E+00
  9.57063696E-02 -1.92875689E-02  4.01993188E-02  6.05195373E-02 -1.08275334E-01
 -3.54069167E-02  2.23850731E-02 -3.30753497E-01  2.27836888E-01  4.52915281E-01
  5.69683789E-01 -4.48193907E-02 -1.25684032E+00 -1.35391352E-01  2.64808597E-01
  1.41259912E-02  3.62369878E+00  2.52131428E-01 -1.25828794E+00 -1.09207665E-01
 -2.02294629E-01 -2.81962083E-01 -7.56559261E-02 -5.94466577E-02  2.84896135E-02
 -4.16123333E-02  1.18523784E-01 -1.38262986E-01 -5.40369568E-01 -6.99311849E-01
  5.72218423E-03  1.60408255E-01  8.84654552E-02  1.42840292E-02  8.22919374E-02
 -3.02352216E+00  2.17247186E+00 -1.90914400E+00 -2.01364830E-01 -1.02924713E-01
  1.79919622E-01 -5.30027556E-02  8.83244100E-02  1.64736441E-01  1.02553709E-01
  4.34673009E-01  6.64002015E-01 -3.78822496E-01 -8.81378772E-01 -6.62063810E-02
 -1.11112899E+00 -7.47416195E-02 -3.06783259E-01  6.02777087E-02  4.37921065E+00
  1.87157275E+00  1.66741735E+00 -8.08106375E-02 -2.02333033E-01 -1.73836804E-01
 -1.07572084E-01  1.28544511E-01 -1.55911067E-01  2.56332131E-01 -5.23877453E-01
 -2.50746997E-01  4.22651132E-01  2.34354213E-01  3.06449553E-04 -6.90916510E-03
  2.56388961E-02  2.64000985E-02 -1.93236057E-01 -4.12900618E-01  3.56455015E-01
 -4.13154376E-01  2.64062888E-02 -3.49298903E-02 -1.76106845E-02  5.27919617E-02
  9.06280545E-02 -5.32137227E-01  2.56845950E-01  7.62174343E-02  1.35558591E-01
 -9.58276000E-02 -1.96167176E-01 -9.02992609E-03 -1.10880078E-01 -1.47536505E-02
 -3.68251300E-02 -1.41642061E-01  5.39359266E-01  3.41311888E-01  3.38743948E-01
 -4.15701451E-03  1.75305859E-03 -7.30309866E-02  2.25779604E-02 -2.08556369E-02
  5.50851878E-01  3.10856938E-01 -1.19565382E-01  1.07488660E-02  1.05407278E-01
  8.58316207E-02  6.97362639E-03  7.49026603E-02  5.92000729E-02 -2.15125761E-02
 -6.64127627E-02 -1.09648323E+00  7.26421278E-01 -9.10095676E-01 -4.80932958E-02
 -4.96454450E-02  1.37168260E-01 -7.82889985E-02 -1.21673294E-02 -2.10885157E-01
 -6.70933298E-01  2.18665573E-01  3.84860765E-01 -1.99883234E-01 -3.54693273E-01
 -2.42522422E-02 -3.31442850E-01  3.72218831E-03 -1.54803720E-01 -4.58385593E-02
  1.42981431E+00  5.91225934E-01  7.98126269E-01 -4.52599234E-02 -4.23158872E-02
 -1.68066025E-01  8.73461632E-02  1.22086128E-01  2.25453735E-01 -4.68841112E-01
 -2.84299999E-01 -1.44689961E-01  1.33244104E-01  1.67891339E-01 -1.92962710E-02